37
Lattice="7.98 0.0 0.0 3.99 6.910882722199821 0.0 0.0 0.0 23.405440000000002" Properties=species:S:1:pos:R:3:move_mask:L:1:tags:I:1:forces:R:3 charge=0 spin=0 energy=-25.539634943531077 free_energy=-25.539634943531077 stress="0.0005710835857242033 -4.4976747192344917e-10 -2.558067212424568e-09 -4.4976747192344917e-10 0.0005710913072941136 3.998020692155352e-09 -2.558067212424568e-09 3.998020692155352e-09 -0.0019973210563336745" pbc="T T T"
Zn      -0.00000000       1.53575172       8.00000000  F        4       0.00000092      -0.00000096      -0.08614170
Zn       2.66000000       1.53575172       8.00000000  F        4       0.00071036       0.00215722      -0.09126896
Zn       5.32000000       1.53575172       8.00000000  F        4      -0.00078450       0.00142866      -0.09170645
Zn       1.33000000       3.83937929       8.00000000  F        4       0.00162831      -0.00003544      -0.09170733
Zn       3.99000000       3.83937929       8.00000000  F        4       0.00000172      -0.00000028      -0.09187634
Zn       6.65000000       3.83937929       8.00000000  F        4      -0.00222453      -0.00046421      -0.09126984
Zn       2.66000000       6.14300686       8.00000000  F        4       0.00151325      -0.00169366      -0.09126899
Zn       5.32000000       6.14300686       8.00000000  F        4      -0.00084651      -0.00139290      -0.09170546
Zn       7.98000000       6.14300686       8.00000000  F        4       0.00000111       0.00000075      -0.08979758
Zn       0.00000000       0.00000000      10.46848000  F        3      -0.00128786       0.01744690       0.06636554
Zn       2.66000000       0.00000000      10.46848000  F        3       0.01867779      -0.01027408       0.07348103
Zn       5.32000000       0.00000000      10.46848000  F        3      -0.01823637      -0.01104061       0.07347901
Zn       1.33000000       2.30362757      10.46848000  F        3      -0.01446565      -0.00983996       0.06636573
Zn       3.99000000       2.30362757      10.46848000  F        3      -0.00044942       0.00415181       0.05247361
Zn       6.65000000       2.30362757      10.46848000  F        3       0.01575463      -0.00760779       0.06636652
Zn       2.66000000       4.60725515      10.46848000  F        3       0.00381968      -0.00168458       0.05247620
Zn       5.32000000       4.60725515      10.46848000  F        3      -0.00337077      -0.00246397       0.05247445
Zn       7.98000000       4.60725515      10.46848000  F        3      -0.00044212       0.02131342       0.07347909
Zn      -0.00000019       1.53575155      13.00678258  T        2       0.00000015       0.00000122      -0.04413948
Zn       2.66034644       1.53205372      12.94316938  T        2       0.00997967       0.00574947       0.04358554
Zn       5.32304524       1.53598003      12.94421989  T        2      -0.01578724      -0.00187915       0.04335236
Zn       1.32867542       3.83662782      12.94422094  T        2       0.00626248       0.01461292       0.04334962
Zn       3.99000005       3.83937920      12.95603078  T        2       0.00000141      -0.00000043       0.04893004
Zn       6.65302934       3.84152818      12.94316951  T        2      -0.00996995       0.00576930       0.04358624
Zn       2.65662429       6.14455587      12.94317013  T        2      -0.00001139      -0.01151906       0.04358410
Zn       5.31827947       6.14552992      12.94422112  T        2       0.00952367      -0.01273071       0.04334766
Zn       7.97999993       6.14300707      13.00965484  T        2      -0.00000039      -0.00000155      -0.02166197
Zn      -0.00208558      -0.00322372      15.48482987  T        1       0.00215619       0.00124264       0.00662032
Zn       2.65764075       0.00016449      15.52353856  T        1       0.00216348       0.00062574      -0.01833690
Zn       5.32132124       0.00196148      15.52353829  T        1      -0.00053701      -0.00219046      -0.01833740
Zn       1.33383389       2.30343355      15.48482963  T        1      -0.00215391       0.00124843       0.00662012
Zn       3.99076153       2.30263599      15.49125975  T        1      -0.00049745      -0.00531596       0.01193604
Zn       6.64825069       2.30704558      15.48483000  T        1      -0.00000380      -0.00248974       0.00662036
Zn       2.65875980       4.60709140      15.49125900  T        1      -0.00435586       0.00308819       0.01193998
Zn       5.32047737       4.60841094      15.49125983  T        1       0.00485346       0.00222819       0.01193569
Zn       7.98103688       4.60513055      15.52353826  T        1      -0.00162361       0.00156068      -0.01833690
Zn       3.99000373       3.83937684      18.69491260  T        0       0.00000007      -0.00000001      -0.00481396
