46
Lattice="7.98 0.0 0.0 3.99 6.910882722199821 0.0 0.0 0.0 23.405440000000002" Properties=species:S:1:pos:R:3:move_mask:L:1:tags:I:1:forces:R:3 charge=0 spin=0 energy=-77.95475778077919 free_energy=-77.95475778077919 stress="0.0013599951227688115 9.419022987803568e-05 0.00010414306191499807 9.419022987803568e-05 0.0013988567139410764 -0.00021370640002219194 0.00010414306191499807 -0.00021370640002219194 -0.0015411245754190096" pbc="T T T"
Zn      -0.00000000       1.53575172       8.00000000  F        4       0.00050725       0.00003021      -0.08718936
Zn       2.66000000       1.53575172       8.00000000  F        4       0.00005399       0.00036821      -0.08701926
Zn       5.32000000       1.53575172       8.00000000  F        4       0.00020398       0.00004734      -0.08673175
Zn       1.33000000       3.83937929       8.00000000  F        4       0.00035914       0.00013397      -0.08816777
Zn       3.99000000       3.83937929       8.00000000  F        4       0.00006569       0.00013585      -0.08896509
Zn       6.65000000       3.83937929       8.00000000  F        4      -0.00005372       0.00017028      -0.08741172
Zn       2.66000000       6.14300686       8.00000000  F        4       0.00022122      -0.00127330      -0.08842904
Zn       5.32000000       6.14300686       8.00000000  F        4       0.00024247      -0.00099438      -0.08798626
Zn       7.98000000       6.14300686       8.00000000  F        4       0.00044790      -0.00106952      -0.08741014
Zn       0.00000000       0.00000000      10.46848000  F        3       0.00263006      -0.00645489       0.08931837
Zn       2.66000000       0.00000000      10.46848000  F        3       0.00241104      -0.00427551       0.08922959
Zn       5.32000000       0.00000000      10.46848000  F        3       0.00398585      -0.00429970       0.08703436
Zn       1.33000000       2.30362757      10.46848000  F        3       0.00474253      -0.00897587       0.08817996
Zn       3.99000000       2.30362757      10.46848000  F        3       0.00320163      -0.01216703       0.09059023
Zn       6.65000000       2.30362757      10.46848000  F        3       0.00105757      -0.00898278       0.09020632
Zn       2.66000000       4.60725515      10.46848000  F        3       0.00111095      -0.00361717       0.08080328
Zn       5.32000000       4.60725515      10.46848000  F        3       0.00485709      -0.00429229       0.08458318
Zn       7.98000000       4.60725515      10.46848000  F        3       0.00279469      -0.00630452       0.08329555
Zn       0.01835541       1.50297488      12.98804567  T        2      -0.00051767      -0.00303088       0.00581455
Zn       2.67584587       1.49926620      12.99374120  T        2       0.01052351       0.01863257      -0.01018355
Zn       5.34180394       1.49822635      12.99504091  T        2      -0.01484460       0.01989344      -0.01244179
Zn       1.34892117       3.80496076      12.98102346  T        2      -0.00034718       0.00282382       0.00514709
Zn       4.00793131       3.80890083      12.97588598  T        2       0.00140236      -0.01476894       0.00659428
Zn       6.66879250       3.80512936      12.98391832  T        2      -0.00451483       0.00301168       0.00411553
Zn       2.67940497       6.10788070      12.98941730  T        2      -0.00003298       0.01159550      -0.00234231
Zn       5.33880729       6.10961970      12.98851669  T        2      -0.00721668       0.00649177      -0.00050990
Zn       7.99928244       6.10790837      12.98241308  T        2      -0.00090765       0.00679765       0.00314522
Zn       0.02468497      -0.04017254      15.55689390  T        1      -0.00213441       0.00265137      -0.01880292
Zn       2.68533217      -0.03702430      15.52480088  T        1      -0.00687758      -0.00694536       0.00375739
Zn       5.34345658      -0.03800206      15.53012182  T        1       0.00850580      -0.00704379       0.00532984
Zn       1.35465944       2.26574618      15.54190158  T        1      -0.00529209       0.00018890      -0.01434026
Zn       4.01438823       2.26813951      15.51443238  T        1      -0.00126915      -0.01084621       0.00324803
Zn       6.67595996       2.26385909      15.54050043  T        1       0.00055521       0.00182123      -0.00920897
Zn       2.68783284       4.56735340      15.52456903  T        1      -0.01704020       0.01495981       0.01980908
Zn       5.34200006       4.56577212      15.52033363  T        1       0.01269745       0.01370270       0.00286315
Zn       8.00490995       4.56857585      15.52452445  T        1       0.00081927       0.00225709       0.00283483
C        3.55958135       3.27871199      19.99071155  T        0       0.02471736       0.00068571       0.00035867
C        3.63954438       3.06503611      21.50554418  T        0      -0.00779796      -0.00224504       0.04115624
O        3.59110610       4.67892274      19.65380000  T        0      -0.03440794      -0.01736643      -0.00475039
O        3.56413139       1.64539988      21.75632385  T        0      -0.00203663      -0.00222584      -0.03018341
H        2.59889563       2.89060087      19.60821488  T        0       0.02800708       0.02667466       0.01053357
H        4.37540609       2.72341719      19.48788434  T        0      -0.00636900      -0.02835019      -0.00449919
H        2.80606928       3.60598093      21.99534387  T        0      -0.02605844       0.01123787       0.00722000
H        4.59312337       3.48532784      21.89143449  T        0       0.02384391      -0.00180022      -0.00338902
H        4.50333221       5.00199610      19.76972805  T        0      -0.00330370      -0.01073476       0.01460750
H        3.56950679       1.50520187      22.71980433  T        0       0.00105749       0.02375310      -0.01981391
