39
Lattice="7.98 0.0 0.0 3.99 6.910882722199821 0.0 0.0 0.0 23.405440000000002" Properties=species:S:1:pos:R:3:move_mask:L:1:tags:I:1:forces:R:3 charge=0 spin=0 energy=-39.654605590419955 free_energy=-39.654605590419955 stress="0.0009124325726547982 -2.656625429297163e-06 9.940438365351354e-07 -2.656625429297163e-06 0.0009087680453470192 9.288991871228235e-08 9.940438365351354e-07 9.288991871228235e-08 -0.0013090053338566826" pbc="T T T"
Zn      -0.00000000       1.53575172       8.00000000  F        4      -0.00001242      -0.00276726      -0.09112503
Zn       2.66000000       1.53575172       8.00000000  F        4       0.00060105       0.00147340      -0.09318382
Zn       5.32000000       1.53575172       8.00000000  F        4      -0.00057904       0.00153388      -0.09302830
Zn       1.33000000       3.83937929       8.00000000  F        4       0.00372619       0.00013708      -0.09168327
Zn       3.99000000       3.83937929       8.00000000  F        4      -0.00013473       0.00118897      -0.09643530
Zn       6.65000000       3.83937929       8.00000000  F        4      -0.00357664      -0.00005849      -0.09176277
Zn       2.66000000       6.14300686       8.00000000  F        4       0.00326498      -0.00117243      -0.09423437
Zn       5.32000000       6.14300686       8.00000000  F        4      -0.00301397      -0.00114385      -0.09447891
Zn       7.98000000       6.14300686       8.00000000  F        4      -0.00021385       0.00104049      -0.09158732
Zn       0.00000000       0.00000000      10.46848000  F        3      -0.00042247       0.00885600       0.09610506
Zn       2.66000000       0.00000000      10.46848000  F        3       0.01351134      -0.00221224       0.11431095
Zn       5.32000000       0.00000000      10.46848000  F        3      -0.01296874      -0.00281521       0.11436250
Zn       1.33000000       2.30362757      10.46848000  F        3      -0.00311638       0.00189021       0.11246005
Zn       3.99000000       2.30362757      10.46848000  F        3       0.00038783      -0.01327671       0.09684550
Zn       6.65000000       2.30362757      10.46848000  F        3       0.00277306       0.00136777       0.11247521
Zn       2.66000000       4.60725515      10.46848000  F        3      -0.01505570      -0.00062593       0.09597730
Zn       5.32000000       4.60725515      10.46848000  F        3       0.01469490      -0.00068453       0.09588874
Zn       7.98000000       4.60725515      10.46848000  F        3      -0.00027969       0.00606721       0.12417590
Zn      -0.00034079       1.53560176      13.00155222  T        2      -0.00093716       0.00571970      -0.02537725
Zn       2.66059763       1.53402076      12.99527699  T        2      -0.00756743       0.00326941      -0.01404511
Zn       5.31742862       1.53244381      12.99612252  T        2       0.00912098       0.00768969      -0.01488307
Zn       1.32573791       3.83966849      13.00557987  T        2       0.01851797       0.00419956      -0.02823740
Zn       3.98852855       3.83659537      12.95814956  T        2       0.00245204       0.02112491       0.03450460
Zn       6.65082074       3.83764266      13.00533720  T        2      -0.01304976       0.00935095      -0.02808548
Zn       2.65889690       6.14596734      12.97774035  T        2      -0.00243905      -0.02451920       0.00674057
Zn       5.32289440       6.14537353      12.97687373  T        2      -0.00478145      -0.02176666       0.00771522
Zn       7.97977497       6.14311556      13.03067300  T        2      -0.00041492      -0.00451550      -0.04617381
Zn       0.00131820      -0.00239614      15.50494992  T        1      -0.00204793       0.00579597       0.02793001
Zn       2.65384077      -0.00219930      15.56976181  T        1       0.02685806       0.00935283      -0.02718745
Zn       5.32624849      -0.00130930      15.57078651  T        1      -0.02695101       0.00863273      -0.02692508
Zn       1.33384595       2.30414835      15.53413969  T        1      -0.02369951      -0.00354610      -0.00128500
Zn       3.98838968       2.30518762      15.52121414  T        1       0.00146135      -0.00665794       0.01547283
Zn       6.64496191       2.30259382      15.53473968  T        1       0.02428087      -0.00018101      -0.00160808
Zn       2.65962448       4.60901420      15.53016514  T        1       0.01579844      -0.00460117       0.00478463
Zn       5.31960168       4.60654824      15.53049994  T        1      -0.01573233      -0.00209733       0.00458788
Zn       7.97962603       4.60722421      15.55793342  T        1      -0.00005275      -0.00565879      -0.01147103
O        3.99228195       4.68209359      19.86389391  T        0      -0.00160324       0.00479720       0.00535045
H        4.75873938       4.58431330      20.45638780  T        0      -0.00294134      -0.00292010      -0.00260051
H        3.22119906       4.59705464      20.45241356  T        0       0.00414243      -0.00226752      -0.00428903
