46
Lattice="7.98 0.0 0.0 3.99 6.910882722199821 0.0 0.0 0.0 23.405440000000002" Properties=species:S:1:pos:R:3:tags:I:1:forces:R:3 charge=0 spin=0 energy=-77.95899739074514 free_energy=-77.95899739074514 stress="0.001811614975561671 2.5428989887310445e-05 -2.2178151907629667e-05 2.5428989887310445e-05 0.0018629688910449238 3.122246833722381e-05 -2.2178151907629667e-05 3.122246833722381e-05 -0.00013447852128170633" pbc="T T T"
Zn       0.00608986       1.52669041       7.31202501        4      -0.00132300       0.00070509      -0.00576982
Zn       2.66603921       1.52680095       7.30902774        4       0.00197086       0.00060417      -0.00379299
Zn       5.32616628       1.52702747       7.29761303        4       0.00049843       0.00129850       0.00695948
Zn       1.33559011       3.82948199       7.30684972        4       0.00114170       0.00498012      -0.00449507
Zn       3.99605090       3.83056373       7.29878862        4       0.00091085      -0.00005357       0.00541537
Zn       6.65507190       3.83091633       7.30329889        4       0.00176095      -0.00139888       0.00232390
Zn       2.66617464       6.13487065       7.30228969        4      -0.00082439      -0.00281001       0.00119285
Zn       5.32603915       6.13436008       7.31156850        4      -0.00020649      -0.00143067      -0.00425079
Zn       7.98501189       6.13501656       7.30569670        4       0.00436773      -0.00285393      -0.00153455
Zn       0.01023383      -0.00997783       9.85689476        3       0.00010061       0.00218263      -0.00198026
Zn       2.67171442      -0.00927373       9.85803089        3      -0.00383419       0.00084004      -0.00241120
Zn       5.33108501      -0.00950825       9.85139451        3      -0.00022696      -0.00059203       0.00413674
Zn       1.34040387       2.29613863       9.85369114        3       0.00082111      -0.00624805       0.00290513
Zn       4.00086720       2.29369255       9.85511055        3      -0.00290192       0.00131272      -0.00305914
Zn       6.65939315       2.29498554       9.85779044        3       0.00297502      -0.00378704      -0.00634836
Zn       2.67066216       4.59785734       9.84951212        3       0.00075000       0.00082264       0.00735099
Zn       5.33062558       4.59682199       9.86005175        3      -0.00223658       0.00380169      -0.00936738
Zn       7.99112264       4.59806852       9.85131072        3      -0.00134553       0.00224545       0.00456348
Zn       0.01238705       1.52567669      12.36702898        2      -0.00108969       0.00195210       0.00143219
Zn       2.66920368       1.52756929      12.37259404        2       0.00931834      -0.00244551      -0.00313130
Zn       5.33034802       1.52515526      12.36752540        2      -0.00032928      -0.00042949       0.00249660
Zn       1.34477961       3.83065147      12.37484118        2      -0.00372731       0.00334431      -0.00750331
Zn       4.00292541       3.82878877      12.36899774        2      -0.00848267       0.00186043       0.00078967
Zn       6.66400825       3.82993355      12.36591339        2       0.00131465      -0.00097300       0.00100998
Zn       2.67219731       6.13408242      12.37549710        2      -0.00326291      -0.00681862      -0.00380564
Zn       5.33191423       6.13283361      12.36603151        2      -0.00029521       0.00344838       0.00431149
Zn       7.99179748       6.13367620      12.37277297        2       0.00349234      -0.00072725      -0.00231369
Zn       0.01159804      -0.00899123      14.91054535        1      -0.00186829      -0.00195533      -0.00131581
Zn       2.67001225      -0.00870907      14.91274756        1       0.00377565      -0.00254027       0.00161500
Zn       5.32949856      -0.01256783      14.92318524        1       0.00571906       0.00564206      -0.00695988
Zn       1.34117779       2.29515399      14.91294273        1      -0.00068607      -0.00429037       0.01126303
Zn       3.99936005       2.29239073      14.92226520        1       0.00513045       0.00123614      -0.00748600
Zn       6.66041359       2.29317679      14.89411902        1       0.00103323      -0.00073753       0.00299986
Zn       2.67400124       4.59603014      14.93335711        1      -0.00203256       0.00339572      -0.00718351
Zn       5.33334672       4.59738295      14.89157227        1      -0.00287766      -0.00082107       0.00600545
Zn       7.99470474       4.59710981      14.91449663        1      -0.00754350       0.00107181       0.00020202
C        5.19395956       3.43102774      19.70781629        0      -0.02029560      -0.01190543       0.00253533
C        6.72272769       3.55762135      19.65771669        0      -0.01886311      -0.02559652       0.00650444
O        4.53351088       4.70767383      19.69551465        0       0.00483169       0.00316470       0.02422430
O        7.37404694       2.27503680      19.62807309        0       0.01424085       0.00526350       0.04491477
H        4.87504158       2.93855181      20.64076890        0       0.02552424      -0.01010229       0.02802199
H        4.85025728       2.79091762      18.86329247        0      -0.01556527       0.02223374      -0.03404502
H        7.09386223       4.06663543      20.56368147        0       0.01489348      -0.00552207      -0.03671671
H        7.01506589       4.17426435      18.77560571        0      -0.00560587      -0.01658125       0.02953642
H        4.85369008       5.20569380      18.92138449        0      -0.00197633       0.02433986      -0.03359401
H        6.97582222       1.74723711      18.91108913        0       0.00282920       0.01487444      -0.01564615
