46
Lattice="7.98 0.0 0.0 3.99 6.910882722199821 0.0 0.0 0.0 23.405440000000002" Properties=species:S:1:pos:R:3:move_mask:L:1:tags:I:1:forces:R:3 charge=0 spin=0 energy=-77.95105971927705 free_energy=-77.95105971927705 stress="0.0013230779984099255 -1.8072454462992096e-05 8.324841595022499e-05 -1.8072454462992096e-05 0.0013223212437895018 -0.00015982245105996813 8.324841595022499e-05 -0.00015982245105996813 -0.0015151787897945029" pbc="T T T"
Zn      -0.00000000       1.53575172       8.00000000  F        4       0.00029466       0.00026914      -0.08605063
Zn       2.66000000       1.53575172       8.00000000  F        4       0.00183001       0.00138830      -0.08749373
Zn       5.32000000       1.53575172       8.00000000  F        4      -0.00132749       0.00116188      -0.08754130
Zn       1.33000000       3.83937929       8.00000000  F        4       0.00128698       0.00060190      -0.08843437
Zn       3.99000000       3.83937929       8.00000000  F        4       0.00038306      -0.00065348      -0.09059253
Zn       6.65000000       3.83937929       8.00000000  F        4      -0.00144847       0.00060196      -0.08790192
Zn       2.66000000       6.14300686       8.00000000  F        4       0.00004854      -0.00238667      -0.08838063
Zn       5.32000000       6.14300686       8.00000000  F        4       0.00044453      -0.00232247      -0.08785854
Zn       7.98000000       6.14300686       8.00000000  F        4       0.00041539      -0.00089762      -0.08769587
Zn       0.00000000       0.00000000      10.46848000  F        3       0.00241230      -0.00255855       0.10240152
Zn       2.66000000       0.00000000      10.46848000  F        3       0.00197001      -0.00666419       0.09939365
Zn       5.32000000       0.00000000      10.46848000  F        3       0.00496445      -0.00831949       0.09599470
Zn       1.33000000       2.30362757      10.46848000  F        3      -0.00079386      -0.01148238       0.09978708
Zn       3.99000000       2.30362757      10.46848000  F        3       0.00208792      -0.01766035       0.08529171
Zn       6.65000000       2.30362757      10.46848000  F        3       0.00779264      -0.01224846       0.09859346
Zn       2.66000000       4.60725515      10.46848000  F        3      -0.00386149      -0.00017983       0.08628302
Zn       5.32000000       4.60725515      10.46848000  F        3       0.00895598       0.00019497       0.08652676
Zn       7.98000000       4.60725515      10.46848000  F        3       0.00429369      -0.00576743       0.09301291
Zn       0.00475871       1.55125101      12.98148800  T        2       0.00090941       0.00777024      -0.03217802
Zn       2.66544530       1.55199800      12.97714262  T        2       0.00113837       0.00144587      -0.02172915
Zn       5.32406289       1.55280178      12.98255407  T        2      -0.00205773       0.00656457      -0.01814243
Zn       1.33501423       3.85473560      12.98632568  T        2      -0.00041501       0.00486415      -0.01471892
Zn       3.99449650       3.85394253      12.97445641  T        2      -0.00412935       0.00599181       0.02177797
Zn       6.65466267       3.85536501      12.97548457  T        2       0.00035533       0.00455777      -0.00811871
Zn       2.66532528       6.15907388      12.98415295  T        2      -0.01065565       0.00649692      -0.02571346
Zn       5.32341721       6.15805645      12.98390257  T        2       0.00427735       0.00207678      -0.02251774
Zn       7.98441496       6.15833842      12.98522432  T        2      -0.00385813       0.00840175      -0.02242072
Zn       0.00724764       0.01874662      15.53686989  T        1      -0.00340436       0.00739980      -0.01066650
Zn       2.66470116       0.01995181      15.52333391  T        1       0.00037835      -0.00251403       0.01495011
Zn       5.32560723       0.01980324      15.52232665  T        1      -0.00057210      -0.00190526       0.01697504
Zn       1.33459384       2.32395419      15.51906803  T        1      -0.01330926       0.00546358      -0.00853524
Zn       3.99544893       2.32585785      15.55055270  T        1      -0.00110046      -0.01048198       0.01144915
Zn       6.65265693       2.32516520      15.52765435  T        1       0.00258913       0.00643398      -0.00495655
Zn       2.66976764       4.62844629      15.52338025  T        1      -0.00918338       0.00566433       0.02346961
Zn       5.32526042       4.62823106      15.54272521  T        1       0.01103405       0.00305740       0.00836341
Zn       7.98293785       4.62792787      15.52557787  T        1       0.00102665       0.00572566       0.01956417
C        5.01271468       3.74265500      20.21703204  T        0      -0.02114900      -0.00378620       0.00534997
C        5.00938555       3.74500504      21.74873984  T        0       0.02174412       0.01064399      -0.03571068
O        5.15282815       5.07327754      19.68662689  T        0       0.03107117       0.00447223       0.00505215
O        4.73250701       2.39840209      22.18532177  T        0      -0.02503868       0.01374025       0.02522411
H        4.03938253       3.37381223      19.85123771  T        0      -0.03332030      -0.01815802       0.02795114
H        5.80182718       3.06181654      19.83723717  T        0       0.01214988       0.02857897       0.01999900
H        4.23997290       4.45677696      22.11150137  T        0       0.01438392      -0.01323685      -0.04011086
H        5.99953729       4.08329084      22.12360106  T        0      -0.00022603       0.03779912      -0.01077425
H        6.05316556       5.39454584      19.88131430  T        0      -0.00587653      -0.02382785       0.02756131
H        4.68189950       2.39932534      23.15729168  T        0       0.00348934      -0.03631604      -0.00672917
