46
Lattice="7.98 0.0 0.0 3.99 6.910882722199821 0.0 0.0 0.0 23.405440000000002" Properties=species:S:1:pos:R:3:move_mask:L:1:tags:I:1:forces:R:3 charge=0 spin=0 energy=-77.94412080587736 free_energy=-77.94412080587736 stress="0.0013220312891821604 3.484271117072001e-06 -3.2855081869757043e-05 3.484271117072001e-06 0.0012481481082597101 6.22664908626041e-05 -3.2855081869757043e-05 6.22664908626041e-05 -0.0015256242844286475" pbc="T T T"
Zn      -0.00000000       1.53575172       8.00000000  F        4      -0.00030369      -0.00006487      -0.08588138
Zn       2.66000000       1.53575172       8.00000000  F        4       0.00158403       0.00110228      -0.08812834
Zn       5.32000000       1.53575172       8.00000000  F        4      -0.00137625       0.00094848      -0.08789855
Zn       1.33000000       3.83937929       8.00000000  F        4       0.00145366       0.00128212      -0.08750972
Zn       3.99000000       3.83937929       8.00000000  F        4      -0.00026905      -0.00018601      -0.09048585
Zn       6.65000000       3.83937929       8.00000000  F        4      -0.00183212       0.00061260      -0.08819841
Zn       2.66000000       6.14300686       8.00000000  F        4       0.00010722      -0.00170076      -0.08797141
Zn       5.32000000       6.14300686       8.00000000  F        4      -0.00012427      -0.00130182      -0.08863011
Zn       7.98000000       6.14300686       8.00000000  F        4      -0.00014428       0.00003775      -0.08802032
Zn       0.00000000       0.00000000      10.46848000  F        3       0.00120768       0.00835730       0.09723136
Zn       2.66000000       0.00000000      10.46848000  F        3      -0.00063488       0.00119503       0.09595920
Zn       5.32000000       0.00000000      10.46848000  F        3      -0.00357703       0.00271085       0.09854540
Zn       1.33000000       2.30362757      10.46848000  F        3      -0.00579894      -0.00131845       0.10193486
Zn       3.99000000       2.30362757      10.46848000  F        3      -0.00019736      -0.00516998       0.08706603
Zn       6.65000000       2.30362757      10.46848000  F        3       0.00388317      -0.00055288       0.10116220
Zn       2.66000000       4.60725515      10.46848000  F        3      -0.00766569       0.00414684       0.08583269
Zn       5.32000000       4.60725515      10.46848000  F        3       0.00590865       0.00655997       0.08534410
Zn       7.98000000       4.60725515      10.46848000  F        3      -0.00166838       0.00323243       0.09704296
Zn      -0.00444951       1.54730775      13.01415876  T        2       0.00089603       0.00241747      -0.03366836
Zn       2.65556137       1.54913397      12.99347449  T        2      -0.00296263      -0.00771933      -0.01283254
Zn       5.31701173       1.54875118      12.99493263  T        2       0.00028713      -0.00355349      -0.01348645
Zn       1.32379287       3.85033650      12.99490013  T        2       0.00317201       0.00140719      -0.01935198
Zn       3.98583710       3.85154191      12.96654495  T        2       0.00329362       0.00073181       0.01414893
Zn       6.64434482       3.85132404      12.99394095  T        2       0.00121870       0.00069072      -0.01887921
Zn       2.65775219       6.15513678      12.98687209  T        2      -0.00795520       0.00028094      -0.01030759
Zn       5.31573946       6.15606884      12.99494633  T        2       0.00557644      -0.00324046      -0.01792276
Zn       7.97521978       6.15663629      12.99925337  T        2      -0.00074809      -0.00164262      -0.02337576
Zn      -0.00741820       0.01213605      15.53542485  T        1       0.00243768       0.01483138      -0.00330458
Zn       2.65213246       0.01815229      15.54320501  T        1       0.00226602      -0.00493510      -0.00183678
Zn       5.31234699       0.01703920      15.52733236  T        1      -0.00072793       0.00081372       0.00530852
Zn       1.32253309       2.31832431      15.54299539  T        1      -0.00300840       0.00418856      -0.00578473
Zn       3.98227617       2.32589850      15.51151709  T        1       0.00243517      -0.01927935       0.00934253
Zn       6.64127522       2.32030053      15.54653284  T        1       0.00359677       0.00069938      -0.00854046
Zn       2.65621942       4.62226842      15.50894333  T        1      -0.01540073       0.00313859       0.00946694
Zn       5.31063589       4.62479779      15.53270835  T        1       0.01252014      -0.00357468       0.02801944
Zn       7.97159190       4.62373576      15.51653244  T        1      -0.00000443      -0.00336344       0.02260218
C        3.85555939       3.69486898      19.94501367  T        0      -0.00439385      -0.03641882      -0.02381047
C        3.81913606       3.75518961      21.47689247  T        0      -0.00077368      -0.00026194      -0.04322473
O        4.37300879       4.90854953      19.36674975  T        0      -0.03084991      -0.01635944       0.03136890
O        3.34273188       2.47432065      21.93891447  T        0      -0.01081654      -0.00331867       0.02307847
H        2.84650076       3.45198810      19.55444160  T        0       0.02938660       0.01890986       0.01726045
H        4.53825866       2.88981601      19.62225571  T        0       0.00473945      -0.01547336       0.03074587
H        3.14555838       4.57349177      21.80895448  T        0      -0.01256008       0.01627049      -0.01936082
H        4.83510800       3.96805672      21.86481390  T        0       0.02961157       0.02232653      -0.01892834
H        3.65251739       5.56316056      19.33954272  T        0       0.00628779       0.03019336       0.02520504
H        3.31300739       2.49905418      22.91140674  T        0      -0.00807618      -0.01765017       0.00067350
