10
Lattice="20.0 0.0 0.0 0.0 20.0 0.0 0.0 0.0 20.0" Properties=species:S:1:pos:R:3:forces:R:3 charge=0 spin=0 energy=-52.30099920379099 free_energy=-52.30099920379099 stress="1.3809175633518633e-05 -4.264658668836671e-06 -3.799443544584991e-08 -4.264658668836671e-06 -2.973993554622134e-06 2.494912046727459e-07 -3.799443544584991e-08 2.494912046727459e-07 7.364456823479427e-06" pbc="T T T"
C        8.77838446       9.71747550      10.00004509       0.02428193       0.00810969      -0.00002391
C       10.30747687       9.70742502       9.99986977       0.00982674      -0.00244916      -0.00012248
O        8.23534147      11.05484033      10.00230956      -0.00018174      -0.00264789       0.00253715
O       10.74164675       8.33503536       9.99958777      -0.01671827      -0.01251152      -0.00010957
H        8.40572533       9.18566186      10.89689476       0.00823371      -0.00720289      -0.03021381
H        8.40622937       9.18673027       9.10225004       0.00750319      -0.00605089       0.02961359
H       10.68309989      10.23909756      10.90140536      -0.01106859       0.01602745      -0.00283659
H       10.68230134      10.23905739       9.09798928      -0.01070099       0.01710135       0.00297741
H        8.96636057      11.69773081       9.99842866       0.00459590      -0.00852653      -0.00252088
H       11.71543388       8.32494590      10.00121971      -0.01577188      -0.00184972       0.00069912
