2
Lattice="20.0 0.0 0.0 0.0 20.0 0.0 0.0 0.0 20.0" Properties=species:S:1:pos:R:3:forces:R:3 charge=0 spin=0 energy=-6.9406308829337595 free_energy=-6.9406308829337595 stress="0.0 0.0 -1.6570620312409171e-12 0.0 0.0 3.535065984496742e-12 -1.6570620312409171e-12 3.535065984496742e-12 -4.360720842722099e-08" pbc="T T T"
H       10.00000000      10.00000000       9.62654391      -0.00000004       0.00000008      -0.00046707
H       10.00000000      10.00000000      10.37345609       0.00000004      -0.00000008       0.00046707
