46
Lattice="7.98 0.0 0.0 3.99 6.910882722199821 0.0 0.0 0.0 23.405440000000002" Properties=species:S:1:pos:R:3:move_mask:L:1:tags:I:1:forces:R:3 charge=0 spin=0 energy=-77.95105971927705 free_energy=-77.95105971927705 stress="0.0013230779984099255 -1.8072454462992096e-05 8.324841595022499e-05 -1.8072454462992096e-05 0.0013223212437895018 -0.00015982245105996813 8.324841595022499e-05 -0.00015982245105996813 -0.0015151787897945029" pbc="T T T"
Zn      -0.00000000       1.53575172       8.00000000  F        4       0.00029466       0.00026914      -0.08605063
Zn       2.66000000       1.53575172       8.00000000  F        4       0.00183001       0.00138830      -0.08749373
Zn       5.32000000       1.53575172       8.00000000  F        4      -0.00132749       0.00116188      -0.08754130
Zn       1.33000000       3.83937929       8.00000000  F        4       0.00128698       0.00060190      -0.08843437
Zn       3.99000000       3.83937929       8.00000000  F        4       0.00038306      -0.00065348      -0.09059253
Zn       6.65000000       3.83937929       8.00000000  F        4      -0.00144847       0.00060196      -0.08790192
Zn       2.66000000       6.14300686       8.00000000  F        4       0.00004854      -0.00238667      -0.08838063
Zn       5.32000000       6.14300686       8.00000000  F        4       0.00044453      -0.00232247      -0.08785854
Zn       7.98000000       6.14300686       8.00000000  F        4       0.00041539      -0.00089762      -0.08769587
Zn       0.00000000       0.00000000      10.46848000  F        3       0.00241230      -0.00255855       0.10240152
Zn       2.66000000       0.00000000      10.46848000  F        3       0.00197001      -0.00666419       0.09939365
Zn       5.32000000       0.00000000      10.46848000  F        3       0.00496445      -0.00831949       0.09599470
Zn       1.33000000       2.30362757      10.46848000  F        3      -0.00079386      -0.01148238       0.09978708
Zn       3.99000000       2.30362757      10.46848000  F        3       0.00208792      -0.01766035       0.08529171
Zn       6.65000000       2.30362757      10.46848000  F        3       0.00779264      -0.01224846       0.09859346
Zn       2.66000000       4.60725515      10.46848000  F        3      -0.00386149      -0.00017983       0.08628302
Zn       5.32000000       4.60725515      10.46848000  F        3       0.00895598       0.00019497       0.08652676
Zn       7.98000000       4.60725515      10.46848000  F        3       0.00429369      -0.00576743       0.09301291
Zn       0.01903390       1.49735796      13.01363258  T        2       0.00090941       0.00777024      -0.03217802
Zn       2.67809275       1.49943538      12.99684299  T        2       0.00113837       0.00144587      -0.02172915
Zn       5.34105430       1.49675042      12.99392099  T        2      -0.00205773       0.00656457      -0.01814243
Zn       1.35025358       3.80113265      12.99079312  T        2      -0.00041501       0.00486415      -0.01471892
Zn       4.01038838       3.80220477      12.96225499  T        2      -0.00412935       0.00599181       0.02177797
Zn       6.66955135       3.80117094      12.98762924  T        2       0.00035533       0.00455777      -0.00811871
Zn       2.68335393       6.10461664      13.00189042  T        2      -0.01065565       0.00649692      -0.02571346
Zn       5.33844616       6.10731434      12.99897317  T        2       0.00427735       0.00207678      -0.02251774
Zn       8.00146909       6.10445183      12.99503394  T        2      -0.00385813       0.00840175      -0.02242072
Zn       0.02749443      -0.04809250      15.55733856  T        1      -0.00340436       0.00739980      -0.01066650
Zn       2.68738622      -0.04496341      15.51965523  T        1       0.00037835      -0.00251403       0.01495011
Zn       5.34706081      -0.04545278      15.52481736  T        1      -0.00057210      -0.00190526       0.01697504
Zn       1.36026940       2.25734210      15.54385959  T        1      -0.01330926       0.00546358      -0.00853524
Zn       4.01728764       2.26236186      15.50659350  T        1      -0.00110046      -0.01048198       0.01144915
Zn       6.67699424       2.25605441      15.54197712  T        1       0.00258913       0.00643398      -0.00495655
Zn       2.68894563       4.56166753      15.52679906  T        1      -0.00918338       0.00566433       0.02346961
Zn       5.34351708       4.56020262      15.51479900  T        1       0.01103405       0.00305740       0.00836341
Zn       8.00668895       4.55909240      15.51608590  T        1       0.00102665       0.00572566       0.01956417
C        3.57295491       3.26833436      19.94042285  T        0      -0.02114900      -0.00378620       0.00534997
C        3.64995465       3.06777721      21.45903134  T        0       0.02174412       0.01064399      -0.03571068
O        3.57773141       4.66262899      19.58163090  T        0       0.03107117       0.00447223       0.00505215
O        3.55194080       1.64987026      21.71226659  T        0      -0.02503868       0.01374025       0.02522411
H        2.61958253       2.86470976      19.56025105  T        0      -0.03332030      -0.01815802       0.02795114
H        4.39078483       2.71022854      19.44225946  T        0       0.01214988       0.02857897       0.01999900
H        2.82584577       3.62523831      21.95020818  T        0       0.01438392      -0.01323685      -0.04011086
H        4.61406704       3.46542030      21.84323823  T        0      -0.00022603       0.03779912      -0.01077425
H        4.48767574       5.00257107      19.66265518  T        0      -0.00587653      -0.02382785       0.02756131
H        3.53948351       1.52385853      22.67738533  T        0       0.00348934      -0.03631604      -0.00672917
