46
Lattice="7.98 0.0 0.0 3.99 6.910882722199821 0.0 0.0 0.0 23.405440000000002" Properties=species:S:1:pos:R:3:move_mask:L:1:tags:I:1:forces:R:3 charge=0 spin=0 energy=-77.95475778077919 free_energy=-77.95475778077919 stress="0.0013599951227688115 9.419022987803568e-05 0.00010414306191499807 9.419022987803568e-05 0.0013988567139410764 -0.00021370640002219194 0.00010414306191499807 -0.00021370640002219194 -0.0015411245754190096" pbc="T T T"
Zn      -0.00000000       1.53575172       8.00000000  F        4       0.00050725       0.00003021      -0.08718936
Zn       2.66000000       1.53575172       8.00000000  F        4       0.00005399       0.00036821      -0.08701926
Zn       5.32000000       1.53575172       8.00000000  F        4       0.00020398       0.00004734      -0.08673175
Zn       1.33000000       3.83937929       8.00000000  F        4       0.00035914       0.00013397      -0.08816777
Zn       3.99000000       3.83937929       8.00000000  F        4       0.00006569       0.00013585      -0.08896509
Zn       6.65000000       3.83937929       8.00000000  F        4      -0.00005372       0.00017028      -0.08741172
Zn       2.66000000       6.14300686       8.00000000  F        4       0.00022122      -0.00127330      -0.08842904
Zn       5.32000000       6.14300686       8.00000000  F        4       0.00024247      -0.00099438      -0.08798626
Zn       7.98000000       6.14300686       8.00000000  F        4       0.00044790      -0.00106952      -0.08741014
Zn       0.00000000       0.00000000      10.46848000  F        3       0.00263006      -0.00645489       0.08931837
Zn       2.66000000       0.00000000      10.46848000  F        3       0.00241104      -0.00427551       0.08922959
Zn       5.32000000       0.00000000      10.46848000  F        3       0.00398585      -0.00429970       0.08703436
Zn       1.33000000       2.30362757      10.46848000  F        3       0.00474253      -0.00897587       0.08817996
Zn       3.99000000       2.30362757      10.46848000  F        3       0.00320163      -0.01216703       0.09059023
Zn       6.65000000       2.30362757      10.46848000  F        3       0.00105757      -0.00898278       0.09020632
Zn       2.66000000       4.60725515      10.46848000  F        3       0.00111095      -0.00361717       0.08080328
Zn       5.32000000       4.60725515      10.46848000  F        3       0.00485709      -0.00429229       0.08458318
Zn       7.98000000       4.60725515      10.46848000  F        3       0.00279469      -0.00630452       0.08329555
Zn       0.00473291       1.55125937      12.98152100  T        2      -0.00051767      -0.00303088       0.00581455
Zn       2.66546430       1.55204918      12.97712354  T        2       0.01052351       0.01863257      -0.01018355
Zn       5.32402787       1.55281667      12.98260922  T        2      -0.01484460       0.01989344      -0.01244179
Zn       1.33500432       3.85475471      12.98640324  T        2      -0.00034718       0.00282382       0.00514709
Zn       3.99451634       3.85392919      12.97440672  T        2       0.00140236      -0.01476894       0.00659428
Zn       6.65463771       3.85536383      12.97542988  T        2      -0.00451483       0.00301168       0.00411553
Zn       2.66532254       6.15909143      12.98420877  T        2      -0.00003298       0.01159550      -0.00234231
Zn       5.32342029       6.15806682      12.98389134  T        2      -0.00721668       0.00649177      -0.00050990
Zn       7.98441161       6.15835882      12.98529641  T        2      -0.00090765       0.00679765       0.00314522
Zn       0.00716574       0.01870911      15.53663114  T        1      -0.00213441       0.00265137      -0.01880292
Zn       2.66469231       0.01990181      15.52306254  T        1      -0.00687758      -0.00694536       0.00375739
Zn       5.32556549       0.01973554      15.52201377  T        1       0.00850580      -0.00704379       0.00532984
Zn       1.33458750       2.32383394      15.51877227  T        1      -0.00529209       0.00018890      -0.01434026
Zn       3.99538654       2.32575128      15.55079116  T        1      -0.00126915      -0.01084621       0.00324803
Zn       6.65269192       2.32507708      15.52753828  T        1       0.00055521       0.00182123      -0.00920897
Zn       2.66967655       4.62835477      15.52310787  T        1      -0.01704020       0.01495981       0.01980908
Zn       5.32522781       4.62815570      15.54277938  T        1       0.01269745       0.01370270       0.00286315
Zn       7.98297336       4.62782241      15.52530821  T        1       0.00081927       0.00225709       0.00283483
C        5.01270680       3.74283386      20.21680618  T        0       0.02471736       0.00068571       0.00035867
C        5.00921725       3.74511997      21.74854930  T        0      -0.00779796      -0.00224504       0.04115624
O        5.15279170       5.07356491      19.68654412  T        0      -0.03440794      -0.01736643      -0.00475039
O        4.73274599       2.39836789      22.18473869  T        0      -0.00203663      -0.00222584      -0.03018341
H        4.03940076       3.37390080      19.85104768  T        0       0.02800708       0.02667466       0.01053357
H        5.80188574       3.06196914      19.83704238  T        0      -0.00636900      -0.02835019      -0.00449919
H        4.23944278       4.45663128      22.11113255  T        0      -0.02605844       0.01123787       0.00722000
H        5.99931714       4.08373963      22.12325904  T        0       0.02384391      -0.00180022      -0.00338902
H        6.05371690       5.39383324      19.87958738  T        0      -0.00330370      -0.01073476       0.01460750
H        4.68208406       2.39897942      23.15666010  T        0       0.00105749       0.02375310      -0.01981391
