46
Lattice="7.98 0.0 0.0 3.99 6.910882722199821 0.0 0.0 0.0 23.405440000000002" Properties=species:S:1:pos:R:3:move_mask:L:1:tags:I:1:forces:R:3 charge=0 spin=0 energy=-77.95512320750791 free_energy=-77.95512320750791 stress="0.0013651462337547751 9.289895977731485e-06 -2.2493986206550844e-05 9.289895977731485e-06 0.0013763288697692501 0.0001060105463446728 -2.2493986206550844e-05 0.0001060105463446728 -0.0015494512644978402" pbc="T T T"
Zn      -0.00000000       1.53575172       8.00000000  F        4      -0.00061941       0.00034711      -0.08658040
Zn       2.66000000       1.53575172       8.00000000  F        4       0.00078774       0.00043611      -0.08706117
Zn       5.32000000       1.53575172       8.00000000  F        4      -0.00013038       0.00070447      -0.08784140
Zn       1.33000000       3.83937929       8.00000000  F        4       0.00006750       0.00048179      -0.08650784
Zn       3.99000000       3.83937929       8.00000000  F        4       0.00037824      -0.00004224      -0.08919749
Zn       6.65000000       3.83937929       8.00000000  F        4      -0.00054664      -0.00011996      -0.08848256
Zn       2.66000000       6.14300686       8.00000000  F        4      -0.00013434      -0.00009879      -0.08739124
Zn       5.32000000       6.14300686       8.00000000  F        4       0.00014869      -0.00064469      -0.08805417
Zn       7.98000000       6.14300686       8.00000000  F        4       0.00013199       0.00004151      -0.08719134
Zn       0.00000000       0.00000000      10.46848000  F        3       0.00084751       0.00204701       0.08019406
Zn       2.66000000       0.00000000      10.46848000  F        3       0.00099124       0.00100819       0.08223984
Zn       5.32000000       0.00000000      10.46848000  F        3       0.00112527       0.00212679       0.08499318
Zn       1.33000000       2.30362757      10.46848000  F        3      -0.00019011       0.00410294       0.08134688
Zn       3.99000000       2.30362757      10.46848000  F        3       0.00226139       0.00145668       0.08017114
Zn       6.65000000       2.30362757      10.46848000  F        3       0.00120566       0.00014140       0.08184699
Zn       2.66000000       4.60725515      10.46848000  F        3      -0.00189732       0.00473212       0.08095553
Zn       5.32000000       4.60725515      10.46848000  F        3       0.00071661       0.00627636       0.07896899
Zn       7.98000000       4.60725515      10.46848000  F        3       0.00383068       0.00465758       0.08389307
Zn       0.00473291       1.55125937      12.98152100  T        2      -0.00329627      -0.00453563       0.00658430
Zn       2.66546430       1.55204918      12.97712354  T        2      -0.00059989      -0.00529185       0.01648589
Zn       5.32402787       1.55281667      12.98260922  T        2       0.00013816      -0.00307303       0.01210546
Zn       1.33500432       3.85475471      12.98640324  T        2      -0.00029372       0.00125798       0.00158991
Zn       3.99451634       3.85392919      12.97440672  T        2       0.00467937       0.00217300       0.01976513
Zn       6.65463771       3.85536383      12.97542988  T        2      -0.00589871      -0.00118703       0.01681892
Zn       2.66532254       6.15909143      12.98420877  T        2      -0.00022929      -0.00316927       0.00199970
Zn       5.32342029       6.15806682      12.98389134  T        2       0.00142631      -0.00362328       0.00393767
Zn       7.98441161       6.15835882      12.98529641  T        2      -0.00166643      -0.00061267       0.00163458
Zn       0.00716574       0.01870911      15.53663114  T        1      -0.00562877       0.00726521      -0.00152055
Zn       2.66469231       0.01990181      15.52306254  T        1       0.00301937       0.00538315       0.00168030
Zn       5.32556549       0.01973554      15.52201377  T        1      -0.00063906       0.00272964       0.00530413
Zn       1.33458750       2.32383394      15.51877227  T        1       0.00091746       0.00144579       0.00472695
Zn       3.99538654       2.32575128      15.55079116  T        1      -0.00456836      -0.00741320      -0.02721035
Zn       6.65269192       2.32507708      15.52753828  T        1       0.00682419      -0.00766908      -0.00539617
Zn       2.66967655       4.62835477      15.52310787  T        1      -0.01423047      -0.00354145       0.00356946
Zn       5.32522781       4.62815570      15.54277938  T        1      -0.00136534      -0.00138015       0.00248427
Zn       7.98297336       4.62782241      15.52530821  T        1       0.01007280      -0.00426929      -0.00232839
C        5.01270680       3.74283386      20.21680618  T        0      -0.01824142       0.02535353       0.02427539
C        5.00921725       3.74511997      21.74854930  T        0       0.01116393      -0.00118019       0.00501618
O        5.15279170       5.07356491      19.68654412  T        0       0.02535495       0.01476602      -0.01868742
O        4.73274599       2.39836789      22.18473869  T        0      -0.00448551      -0.02321951      -0.00491171
H        4.03940076       3.37390080      19.85104768  T        0       0.00767573      -0.00499662      -0.02253700
H        5.80188574       3.06196914      19.83704238  T        0      -0.02156579       0.02012745       0.00386993
H        4.23944278       4.45663128      22.11113255  T        0       0.00443513      -0.01884041      -0.01374812
H        5.99931714       4.08373963      22.12325904  T        0       0.00893314       0.02627225       0.01860955
H        6.05371690       5.39383324      19.87958738  T        0      -0.01693952      -0.04138257      -0.00199400
H        4.68208406       2.39897942      23.15666010  T        0       0.00603381       0.00095685       0.00157401
