39
Lattice="7.98 0.0 0.0 3.99 6.910882722199821 0.0 0.0 0.0 23.405440000000002" Properties=species:S:1:pos:R:3:move_mask:L:1:tags:I:1:forces:R:3 charge=0 spin=0 energy=-39.65497765627167 free_energy=-39.65497765627167 stress="0.0008020399547786941 -5.5786374872994e-06 9.738969361034657e-07 -5.5786374872994e-06 0.0008035208119796923 -9.64607431976165e-06 9.738969361034657e-07 -9.64607431976165e-06 -0.0017168159997287956" pbc="T T T"
Zn      -0.00000000       1.53575172       8.00000000  F        4      -0.00096435       0.00040434      -0.09061442
Zn       2.66000000       1.53575172       8.00000000  F        4       0.00055087      -0.00062118      -0.09075509
Zn       5.32000000       1.53575172       8.00000000  F        4       0.00025530      -0.00167845      -0.09064934
Zn       1.33000000       3.83937929       8.00000000  F        4       0.00052799       0.00075183      -0.09054344
Zn       3.99000000       3.83937929       8.00000000  F        4      -0.00223150      -0.00072574      -0.08986668
Zn       6.65000000       3.83937929       8.00000000  F        4       0.00174840      -0.00147595      -0.08985317
Zn       2.66000000       6.14300686       8.00000000  F        4      -0.00193171       0.00052523      -0.09024985
Zn       5.32000000       6.14300686       8.00000000  F        4       0.00049036       0.00194076      -0.08968996
Zn       7.98000000       6.14300686       8.00000000  F        4       0.00158018       0.00078187      -0.09040115
Zn       0.00000000       0.00000000      10.46848000  F        3       0.00782949      -0.00544981       0.07632960
Zn       2.66000000       0.00000000      10.46848000  F        3      -0.00756521      -0.00507320       0.07641592
Zn       5.32000000       0.00000000      10.46848000  F        3       0.00028748       0.00140599       0.06916999
Zn       1.33000000       2.30362757      10.46848000  F        3      -0.00028002      -0.00144781       0.07062320
Zn       3.99000000       2.30362757      10.46848000  F        3       0.00225899       0.00829743       0.07672328
Zn       6.65000000       2.30362757      10.46848000  F        3      -0.00211965       0.00742593       0.07658155
Zn       2.66000000       4.60725515      10.46848000  F        3       0.00896823      -0.00190526       0.07458968
Zn       5.32000000       4.60725515      10.46848000  F        3      -0.00017434       0.00127972       0.08929470
Zn       7.98000000       4.60725515      10.46848000  F        3      -0.00968545      -0.00247695       0.07429747
Zn      -0.00081590       1.53723854      12.96176687  T        2       0.01040642       0.00434897       0.02922142
Zn       2.65995860       1.53680918      12.96126433  T        2      -0.01094689       0.00373608       0.02952609
Zn       5.31937325       1.53611659      12.96520073  T        2       0.00078083       0.00056676       0.03000068
Zn       1.32940315       3.84166285      12.95690689  T        2       0.00165787      -0.01556246       0.03121967
Zn       3.99458507       3.84275939      12.98798431  T        2      -0.01162483      -0.00706950      -0.00561723
Zn       6.64343433       3.84203475      12.98794874  T        2       0.01446342      -0.00565042      -0.00549290
Zn       2.66070982       6.14578863      12.96186369  T        2      -0.00338363      -0.00254651       0.03033639
Zn       5.32027471       6.13850008      12.99145600  T        2      -0.00110720       0.01496380      -0.00884397
Zn       7.97945250       6.14517899      12.96126265  T        2       0.00121860      -0.00084668       0.03065035
Zn       0.00074542      -0.00177120      15.50087647  T        1       0.00078742      -0.00058529       0.01295937
Zn       2.66256716      -0.00243237      15.50067483  T        1      -0.00327762       0.00024756       0.01255259
Zn       5.32019056       0.00001192      15.55067267  T        1      -0.00041408      -0.00259497      -0.04490704
Zn       1.33034361       2.30065848      15.53469359  T        1       0.00027227       0.00504217      -0.03263702
Zn       3.99046172       2.30329215      15.50312692  T        1      -0.00126549       0.00416766       0.01018003
Zn       6.64824814       2.30097581      15.50405212  T        1       0.00244331       0.00662882       0.00936082
Zn       2.65860887       4.60822588      15.48155282  T        1       0.00788501      -0.00350068       0.02492682
Zn       5.32034103       4.60624662      15.62232555  T        1      -0.00014323      -0.00171344      -0.04718234
Zn       7.98115280       4.60548894      15.48152216  T        1      -0.00723888      -0.00147334       0.02528579
O        5.32019610       4.57999895      19.48143854  T        0      -0.00083420      -0.00334227       0.00700915
H        6.08914504       4.61445829      20.07777516  T        0       0.00240532       0.00163437      -0.00458922
H        4.55109690       4.61265503      20.07772168  T        0      -0.00162947       0.00159062      -0.00536171
