46
Lattice="7.98 0.0 0.0 3.99 6.910882722199821 0.0 0.0 0.0 23.405440000000002" Properties=species:S:1:pos:R:3:move_mask:L:1:tags:I:1:forces:R:3 charge=0 spin=0 energy=-77.95508243289406 free_energy=-77.95508243289406 stress="0.0013671324482060357 1.2240939836515758e-05 -2.0526740172354607e-05 1.2240939836515758e-05 0.0013764744830736637 0.00010558670916035579 -2.0526740172354607e-05 0.00010558670916035579 -0.0015431435003408107" pbc="T T T"
Zn      -0.00000000       1.53575172       8.00000000  F        4      -0.00061782       0.00034287      -0.08659588
Zn       2.66000000       1.53575172       8.00000000  F        4       0.00078167       0.00043259      -0.08706649
Zn       5.32000000       1.53575172       8.00000000  F        4      -0.00012756       0.00069508      -0.08784635
Zn       1.33000000       3.83937929       8.00000000  F        4       0.00006917       0.00048106      -0.08652111
Zn       3.99000000       3.83937929       8.00000000  F        4       0.00037157      -0.00003976      -0.08918985
Zn       6.65000000       3.83937929       8.00000000  F        4      -0.00054102      -0.00012205      -0.08847824
Zn       2.66000000       6.14300686       8.00000000  F        4      -0.00013388      -0.00009758      -0.08740272
Zn       5.32000000       6.14300686       8.00000000  F        4       0.00014671      -0.00063627      -0.08806013
Zn       7.98000000       6.14300686       8.00000000  F        4       0.00013624       0.00004423      -0.08720186
Zn       0.00000000       0.00000000      10.46848000  F        3       0.00085985       0.00204188       0.08019191
Zn       2.66000000       0.00000000      10.46848000  F        3       0.00097777       0.00101187       0.08223878
Zn       5.32000000       0.00000000      10.46848000  F        3       0.00112386       0.00213092       0.08495310
Zn       1.33000000       2.30362757      10.46848000  F        3      -0.00017111       0.00409038       0.08133524
Zn       3.99000000       2.30362757      10.46848000  F        3       0.00225027       0.00147432       0.08018637
Zn       6.65000000       2.30362757      10.46848000  F        3       0.00120569       0.00017475       0.08184002
Zn       2.66000000       4.60725515      10.46848000  F        3      -0.00186984       0.00471907       0.08094213
Zn       5.32000000       4.60725515      10.46848000  F        3       0.00072074       0.00625511       0.07900700
Zn       7.98000000       4.60725515      10.46848000  F        3       0.00380143       0.00464141       0.08386826
Zn       0.00475871       1.55125101      12.98148800  T        2      -0.00336180      -0.00453095       0.00686509
Zn       2.66544530       1.55199800      12.97714262  T        2      -0.00049018      -0.00516589       0.01663868
Zn       5.32406289       1.55280178      12.98255407  T        2       0.00006074      -0.00308959       0.01227117
Zn       1.33501423       3.85473560      12.98632568  T        2      -0.00030252       0.00130560       0.00192913
Zn       3.99449650       3.85394253      12.97445641  T        2       0.00473648       0.00206777       0.01973500
Zn       6.65466267       3.85536501      12.97548457  T        2      -0.00592822      -0.00121048       0.01683132
Zn       2.66532528       6.15907388      12.98415295  T        2      -0.00028271      -0.00310270       0.00229464
Zn       5.32341721       6.15805645      12.98390257  T        2       0.00145224      -0.00359708       0.00404383
Zn       7.98441496       6.15833842      12.98522432  T        2      -0.00159421      -0.00054923       0.00193572
Zn       0.00724764       0.01874662      15.53686989  T        1      -0.00585704       0.00757635      -0.00173442
Zn       2.66470116       0.01995181      15.52333391  T        1       0.00315418       0.00563199       0.00143010
Zn       5.32560723       0.01980324      15.52232665  T        1      -0.00065983       0.00265467       0.00495060
Zn       1.33459384       2.32395419      15.51906803  T        1       0.00091460       0.00135247       0.00442243
Zn       3.99544893       2.32585785      15.55055270  T        1      -0.00484050      -0.00767648      -0.02704039
Zn       6.65265693       2.32516520      15.52765435  T        1       0.00719596      -0.00787635      -0.00551267
Zn       2.66976764       4.62844629      15.52338025  T        1      -0.01465325      -0.00357073       0.00329935
Zn       5.32526042       4.62823106      15.54272521  T        1      -0.00134708      -0.00135210       0.00256665
Zn       7.98293785       4.62792787      15.52557787  T        1       0.01045498      -0.00437159      -0.00256969
C        5.01271468       3.74265500      20.21703204  T        0      -0.01785725       0.02548622       0.02451412
C        5.00938555       3.74500504      21.74873984  T        0       0.01039395      -0.00211873       0.00892850
O        5.15282815       5.07327754      19.68662689  T        0       0.02894112       0.01863029      -0.01784255
O        4.73250701       2.39840209      22.18532177  T        0      -0.00457456      -0.02273023      -0.00461217
H        4.03938253       3.37381223      19.85123771  T        0       0.00776223      -0.00517119      -0.02181617
H        5.80182718       3.06181654      19.83723717  T        0      -0.02039893       0.01859083       0.00342344
H        4.23997290       4.45677696      22.11150137  T        0       0.00321296      -0.01826691      -0.01449291
H        5.99953729       4.08329084      22.12360106  T        0       0.00985820       0.02650145       0.01698306
H        6.05316556       5.39454584      19.88131430  T        0      -0.02117271      -0.04415113      -0.00302465
H        4.68189950       2.39932534      23.15729168  T        0       0.00619945       0.00109376      -0.00061744
