46
Lattice="7.98 0.0 0.0 3.99 6.910882722199821 0.0 0.0 0.0 23.405440000000002" Properties=species:S:1:pos:R:3:move_mask:L:1:tags:I:1:forces:R:3 charge=0 spin=0 energy=-74.47602196791351 free_energy=-74.47602196791351 stress="0.0006632278416985628 -4.3476363623060666e-05 4.573864728542981e-05 -4.3476363623060666e-05 0.0004237975951113547 9.095901257261802e-06 4.573864728542981e-05 9.095901257261802e-06 -0.0011035347668292954" pbc="T T T"
Zn      -0.00000000       1.53575172       8.00000000  F        4       0.00004856      -0.00115856      -0.09852458
Zn       2.66000000       1.53575172       8.00000000  F        4      -0.01049906      -0.02186472      -0.09686802
Zn       5.32000000       1.53575172       8.00000000  F        4       0.01140380      -0.02148597      -0.09537688
Zn       1.33000000       3.83937929       8.00000000  F        4      -0.01858719      -0.00259705      -0.09603898
Zn       3.99000000       3.83937929       8.00000000  F        4      -0.00036359       0.00097108      -0.08030912
Zn       6.65000000       3.83937929       8.00000000  F        4       0.02094916      -0.00152212      -0.09751352
Zn       2.66000000       6.14300686       8.00000000  F        4      -0.01373578       0.02131752      -0.10158546
Zn       5.32000000       6.14300686       8.00000000  F        4       0.01074348       0.02267229      -0.09933802
Zn       7.98000000       6.14300686       8.00000000  F        4       0.00119198       0.00645282      -0.08897002
Zn       0.00000000       0.00000000      10.46848000  F        3       0.00135483       0.01973504       0.06557499
Zn       2.66000000       0.00000000      10.46848000  F        3       0.02395992      -0.00328570       0.07701343
Zn       5.32000000       0.00000000      10.46848000  F        3      -0.01973915      -0.00380869       0.07976360
Zn       1.33000000       2.30362757      10.46848000  F        3      -0.00648353       0.00283862       0.07786802
Zn       3.99000000       2.30362757      10.46848000  F        3       0.00227900       0.02833383       0.13936801
Zn       6.65000000       2.30362757      10.46848000  F        3       0.01424454       0.00556954       0.07873084
Zn       2.66000000       4.60725515      10.46848000  F        3       0.02183444      -0.01063708       0.16056441
Zn       5.32000000       4.60725515      10.46848000  F        3      -0.01747985      -0.01410352       0.16788267
Zn       7.98000000       4.60725515      10.46848000  F        3       0.00253224       0.01980716       0.08349790
Zn       0.01269563       1.57177088      12.94992574  T        2      -0.00552747      -0.01913857       0.01637935
Zn       2.66361215       1.56092094      12.98049900  T        2       0.00947893       0.00057936      -0.02093479
Zn       5.34011843       1.56132143      12.97648098  T        2      -0.01246793       0.00041679      -0.01654799
Zn       1.34499802       3.87526657      12.99640888  T        2      -0.00593382      -0.01154456      -0.00298510
Zn       4.00339084       3.87281064      13.14950796  T        2      -0.00273232       0.01261652      -0.00083815
Zn       6.66171415       3.87344133      13.00409644  T        2      -0.00390950      -0.00520997      -0.00774207
Zn       2.67772758       6.16814621      12.98335617  T        2      -0.02665073      -0.00046356       0.02267342
Zn       5.32832115       6.16552776      12.98423228  T        2       0.01751468       0.00206154       0.02029256
Zn       7.99342770       6.17592254      12.99860967  T        2      -0.00379370      -0.01745323      -0.02060948
Zn       0.00371879       0.03678313      15.51835134  T        1       0.00689900       0.00645549      -0.00060524
Zn       2.66694419       0.02919431      15.53968362  T        1      -0.00433833      -0.01379258       0.00761521
Zn       5.32511384       0.02169586      15.55335310  T        1       0.01966264      -0.00637190      -0.00438658
Zn       1.32655267       2.32412930      15.53224710  T        1       0.00904658       0.00776717      -0.00197124
Zn       4.00158012       2.28759794      15.45291306  T        1      -0.00716478      -0.01501110      -0.00205423
Zn       6.66064589       2.32515287      15.53384627  T        1       0.01672749       0.00009638       0.00051468
Zn       2.64147723       4.65321774      15.64836318  T        1      -0.00015611       0.00288601      -0.00691204
Zn       5.36764054       4.66537412      15.66503861  T        1      -0.03258787      -0.01981559      -0.00766033
Zn       7.99071765       4.63197632      15.55369912  T        1       0.00114017       0.00525441       0.00860090
Zn       4.00451690       3.71852722      17.72620667  T        0       0.00873343      -0.00236783       0.00827283
C        3.94089838       3.70441113      20.68767213  T        0      -0.00794335       0.00763727      -0.00704603
C        5.33456593       4.22165047      21.06608344  T        0      -0.01195230      -0.00291491      -0.00749121
O        3.94781140       3.03330030      19.43477556  T        0       0.00369331      -0.00077534      -0.03009338
O        5.25444010       4.75882046      22.40242881  T        0       0.01111502       0.00725463      -0.00874748
H        3.21915363       4.54834707      20.71567386  T        0       0.00472400       0.01035935       0.00114328
H        3.61658040       2.97842762      21.46143566  T        0      -0.00537542      -0.01570165      -0.00976109
H        5.64896623       5.00232547      20.33956752  T        0       0.01380654       0.01672333      -0.00693170
H        6.06308736       3.38686665      21.00846885  T        0      -0.01846504      -0.00446403       0.01063834
H        6.14491056       5.04833117      22.66780052  T        0       0.00280309       0.00768210      -0.00855173
