57
Lattice="7.98 0.0 0.0 0.0 9.873920000000002 0.0 0.0 0.0 24.446634438244224" Properties=species:S:1:pos:R:3:move_mask:L:1:tags:I:1:forces:R:3 charge=0 spin=0 energy=-76.28083769147146 free_energy=-76.28083769147146 stress="0.00773763661860555 -0.00014258466364270065 0.00013423050548872815 -0.00014258466364270065 0.004806620009318189 0.00010016292877132356 0.00013423050548872815 0.00010016292877132356 -0.006143950655394637" pbc="T T T"
Zn       1.33000000       0.00000000       9.53575172  F        4       0.01109390      -0.00365183      -0.30945325
Zn       3.99000000       0.00000000       9.53575172  F        4       0.00175268       0.01036171      -0.32181960
Zn       6.65000000       0.00000000       9.53575172  F        4      -0.00792743      -0.00748207      -0.31531984
Zn       1.33000000       2.46848000       8.00000000  F        4       0.05522761       0.00189793      -0.44233012
Zn       3.99000000       2.46848000       8.00000000  F        4      -0.03956046      -0.00238527      -0.44342759
Zn       6.65000000       2.46848000       8.00000000  F        4      -0.01355980       0.01398673      -0.41715029
Zn       1.33000000       4.93696000       9.53575172  F        4      -0.01244482       0.00384580      -0.32116804
Zn       3.99000000       4.93696000       9.53575172  F        4       0.01659820      -0.00038919      -0.31522974
Zn       6.65000000       4.93696000       9.53575172  F        4      -0.01147168       0.01661628      -0.34271616
Zn       1.33000000       7.40544000       8.00000000  F        4       0.02949957       0.00104673      -0.44684556
Zn       3.99000000       7.40544000       8.00000000  F        4      -0.02812444      -0.00445713      -0.44525871
Zn       6.65000000       7.40544000       8.00000000  F        4      -0.00023873      -0.00991469      -0.42930961
Zn       0.00000000       0.00000000      11.83937929  F        3       0.03845018      -0.02579156       0.52855301
Zn       2.66000000       0.00000000      11.83937929  F        3      -0.01960991       0.04558388       0.49955314
Zn       5.32000000       0.00000000      11.83937929  F        3      -0.02949176       0.02186821       0.52885389
Zn       0.00000000       2.46848000      10.30362757  F        3       0.01536060      -0.00022080       0.23374152
Zn       2.66000000       2.46848000      10.30362757  F        3       0.03326321      -0.00751545       0.31669614
Zn       5.32000000       2.46848000      10.30362757  F        3      -0.06905176      -0.00354505       0.30739099
Zn       0.00000000       4.93696000      11.83937929  F        3       0.11095736      -0.00609050       0.42278406
Zn       2.66000000       4.93696000      11.83937929  F        3      -0.01813513       0.02601184       0.55463409
Zn       5.32000000       4.93696000      11.83937929  F        3      -0.05754119       0.02305453       0.42153269
Zn       0.00000000       7.40544000      10.30362757  F        3      -0.00444308       0.00451401       0.26403362
Zn       2.66000000       7.40544000      10.30362757  F        3      -0.00481543      -0.01876217       0.24061532
Zn       5.32000000       7.40544000      10.30362757  F        3       0.02362822       0.00303991       0.25458419
Zn       1.31827998      -0.08979853      14.32423040  T        2      -0.01138251       0.00434372       0.01575588
Zn       3.99572873       0.10851398      14.33508551  T        2       0.01041692      -0.00551321       0.01031341
Zn       6.65052735      -0.02786705      14.37134082  T        2      -0.00062706      -0.01087281       0.01910985
Zn       1.30036103       2.49607565      12.73959827  T        2      -0.00447403      -0.00922599      -0.00243711
Zn       3.96920766       2.63386567      12.83121119  T        2      -0.00425134      -0.00279902      -0.00692319
Zn       6.60707840       2.35519490      12.73506621  T        2       0.00742044       0.00899814      -0.00452946
Zn       1.41634871       4.84076296      14.50900645  T        2       0.01592042      -0.00049021       0.00327924
Zn       4.07946086       5.20016080      14.38374334  T        2      -0.02693014      -0.02295636       0.00494661
Zn       6.70745636       4.83818717      14.16495610  T        2       0.02121765      -0.00497693      -0.01581659
Zn       1.32909867       7.33770547      12.74401891  T        2      -0.00607484       0.00129987      -0.00612855
Zn       3.99471614       7.51666298      12.72733466  T        2       0.00495492      -0.01010900      -0.00210491
Zn       6.66159855       7.40298957      12.76165872  T        2      -0.00654065      -0.02277634      -0.00469094
Zn       0.01554010      -0.05336887      16.90875069  T        1       0.00741702       0.00737327       0.00734281
Zn       2.67652966      -0.07654096      16.93585510  T        1       0.00433747      -0.00544043       0.00280597
Zn       5.33545429      -0.05565027      16.94596724  T        1      -0.00176800       0.00262809       0.00127288
Zn      -0.11973643       2.51140698      15.26073128  T        1       0.00268523       0.00081388       0.00431053
Zn       2.50713994       2.31578244      15.21723037  T        1       0.01385254      -0.01254335       0.00740564
Zn       5.20992606       2.55063239      15.40988062  T        1      -0.00135210      -0.01629325      -0.00754569
Zn       0.46365982       5.26632183      17.22084956  T        1      -0.01078111       0.00757243      -0.01023389
Zn       3.52581611       4.16580089      16.85556530  T        1       0.02206749       0.02173041      -0.02283998
Zn       6.04614837       4.83467824      16.81247002  T        1       0.00503834       0.00307756      -0.00107156
Zn      -0.01991276       7.21108273      15.30744117  T        1       0.00012580       0.01102616      -0.00986145
Zn       2.64272730       7.40710533      15.22037397  T        1      -0.00132026      -0.00607082       0.00295708
Zn       5.32576105       7.44854839      15.29741239  T        1      -0.00738678       0.01384670       0.00049362
C        2.31612757       4.84557442      19.59155106  T        0       0.00366802       0.00660424      -0.00624819
C        3.63901065       5.44218382      20.08129944  T        0      -0.00429487      -0.00417805       0.00248375
O        2.20585679       4.94169453      18.15454975  T        0      -0.01081203      -0.02108406       0.02733119
O        3.68026753       5.24734480      21.50787880  T        0       0.00406704       0.01314127      -0.00040035
H        1.47784484       5.39780487      20.05954058  T        0       0.00062794      -0.01710516      -0.02258042
H        2.24833643       3.79055964      19.92487854  T        0      -0.00350314      -0.00451378      -0.02717765
H        3.69493210       6.51763100      19.81276483  T        0      -0.01531781      -0.01489715       0.01107021
H        4.48583401       4.92272535      19.58156269  T        0      -0.01051247      -0.00125533       0.01391434
H        4.52375395       5.60320089      21.83942504  T        0      -0.01590408       0.00902371      -0.00714716
