44
Lattice="7.98 0.0 0.0 3.99 6.910882722199821 0.0 0.0 0.0 23.405440000000002" Properties=species:S:1:pos:R:3:move_mask:L:1:tags:I:1:forces:R:3 charge=0 spin=0 energy=-72.73979650814016 free_energy=-72.73979650814016 stress="0.0013147891106670203 0.00016346596700814466 -0.00011642959744484755 0.00016346596700814466 0.0009562767562983714 -0.00015924213967009735 -0.00011642959744484755 -0.00015924213967009735 -0.0015592808597048862" pbc="T T T"
Zn      -0.00000000       1.53575172       8.00000000  F        4      -0.00624952      -0.00375716      -0.10018028
Zn       2.66000000       1.53575172       8.00000000  F        4      -0.01402037       0.02025530      -0.10504349
Zn       5.32000000       1.53575172       8.00000000  F        4       0.01817732      -0.00435903      -0.09914819
Zn       1.33000000       3.83937929       8.00000000  F        4       0.01066529      -0.01916570      -0.10481425
Zn       3.99000000       3.83937929       8.00000000  F        4      -0.01096797      -0.00847305      -0.10277262
Zn       6.65000000       3.83937929       8.00000000  F        4       0.00253065      -0.02663768      -0.10914347
Zn       2.66000000       6.14300686       8.00000000  F        4       0.00469186       0.01764722      -0.10164025
Zn       5.32000000       6.14300686       8.00000000  F        4      -0.02433288       0.01093926      -0.10660354
Zn       7.98000000       6.14300686       8.00000000  F        4       0.01707364       0.01015428      -0.09099836
Zn       0.00000000       0.00000000      10.46848000  F        3       0.00743245      -0.02247325       0.10055106
Zn       2.66000000       0.00000000      10.46848000  F        3       0.02439137      -0.07324015       0.13890611
Zn       5.32000000       0.00000000      10.46848000  F        3      -0.04929994      -0.02659833       0.08999642
Zn       1.33000000       2.30362757      10.46848000  F        3      -0.01098000      -0.00559869       0.05011825
Zn       3.99000000       2.30362757      10.46848000  F        3       0.00699395       0.03188962       0.07486955
Zn       6.65000000       2.30362757      10.46848000  F        3      -0.01422541       0.01601397       0.09429354
Zn       2.66000000       4.60725515      10.46848000  F        3       0.03233444      -0.01044311       0.07243846
Zn       5.32000000       4.60725515      10.46848000  F        3       0.00027478       0.00218282       0.19456026
Zn       7.98000000       4.60725515      10.46848000  F        3      -0.04556454       0.05458152       0.14099741
Zn      -0.01595616       1.52210487      12.93445694  T        2      -0.00396679       0.00052706       0.00585178
Zn       2.62784238       1.50798329      12.90081978  T        2       0.02694972      -0.01040159       0.00274595
Zn       5.28393393       1.51421601      12.94385368  T        2      -0.00512561      -0.00613694      -0.00382920
Zn       1.30374374       3.82082859      12.90041143  T        2      -0.00369555       0.01960953       0.00549659
Zn       3.98888120       3.82817693      13.08991673  T        2       0.00372091       0.00801918      -0.00631459
Zn       6.62466889       3.83098944      13.10069729  T        2       0.00212137       0.01017354      -0.01244382
Zn       2.62626642       6.11963227      12.94263999  T        2      -0.00282433      -0.01034822      -0.00906450
Zn       5.31034660       6.10640503      13.12524726  T        2       0.00721827       0.00568436      -0.01907039
Zn       7.92360804       6.10055474      13.29616649  T        2      -0.00606060      -0.00331742       0.00788212
Zn      -0.06389903      -0.05344766      15.39379957  T        1       0.01573195      -0.00462422      -0.00054326
Zn       2.53462524       0.04638892      15.88861521  T        1       0.00677060      -0.03275698       0.02247623
Zn       5.27293929      -0.02577883      15.49687606  T        1       0.01814111      -0.00571775       0.00204591
Zn       1.25582699       2.25389736      15.51000049  T        1      -0.01297389       0.02664217      -0.00980469
Zn       3.96261221       2.30453191      15.47793666  T        1       0.00905139       0.01183411       0.00795465
Zn       6.56723626       2.28944173      15.41818846  T        1       0.01211548       0.00872424      -0.01454216
Zn       2.66150111       4.57561126      15.46886102  T        1       0.00208862       0.01173053       0.01109523
Zn       7.96558249       4.46904090      15.92546473  T        1      -0.01150165       0.00707467       0.00188573
C        6.20138212       5.11735438      18.42589159  T        0       0.02351234       0.00639892      -0.02241496
C        7.01719541       5.28187056      19.71373570  T        0      -0.01605938       0.02315173      -0.00843445
O        6.98180755       5.57670325      17.31120919  T        0       0.01239780      -0.01645391      -0.00056457
O        6.21411261       4.78808333      20.80759472  T        0       0.01021039      -0.00724928      -0.01626509
H        5.26297540       5.70119950      18.49872887  T        0      -0.00607328      -0.00310797       0.03476438
H        5.92088058       4.05234534      18.30286558  T        0      -0.00892922      -0.01700099      -0.02185027
H        7.26723984       6.35346720      19.85132000  T        0       0.02170708       0.00323141       0.01387173
H        7.96769630       4.71392353      19.62217845  T        0      -0.03877060       0.01046842       0.01281596
H        6.70818127       4.93434459      21.63373463  T        0      -0.00468125       0.00092777      -0.02013104
