58
Lattice="7.98 0.0 0.0 0.0 9.873920000000002 0.0 0.0 0.0 24.446634438244224" Properties=species:S:1:pos:R:3:move_mask:L:1:tags:I:1:forces:R:3 charge=0 spin=0 energy=-79.49645011060102 free_energy=-79.49645011060102 stress="0.008422488774250064 -5.633765317379031e-05 -5.3408772452187684e-05 -5.633765317379031e-05 0.0046567600000944065 6.998502869164428e-05 -5.3408772452187684e-05 6.998502869164428e-05 -0.006667968095233961" pbc="T T T"
Zn       1.33000000       0.00000000       9.53575172  F        4       0.00024309      -0.00274475      -0.32352406
Zn       3.99000000       0.00000000       9.53575172  F        4       0.00095314      -0.00043170      -0.32962775
Zn       6.65000000       0.00000000       9.53575172  F        4      -0.00081304       0.00153199      -0.33462840
Zn       1.33000000       2.46848000       8.00000000  F        4       0.00255104      -0.00038686      -0.45156282
Zn       3.99000000       2.46848000       8.00000000  F        4      -0.00148131       0.00076116      -0.45182502
Zn       6.65000000       2.46848000       8.00000000  F        4      -0.00208301       0.00245928      -0.44932768
Zn       1.33000000       4.93696000       9.53575172  F        4      -0.00631053      -0.00151847      -0.32811895
Zn       3.99000000       4.93696000       9.53575172  F        4       0.00938713      -0.00187310      -0.32939646
Zn       6.65000000       4.93696000       9.53575172  F        4      -0.00199294      -0.00621623      -0.33213434
Zn       1.33000000       7.40544000       8.00000000  F        4       0.00373361      -0.00373934      -0.44917902
Zn       3.99000000       7.40544000       8.00000000  F        4      -0.00440116      -0.00403297      -0.44712326
Zn       6.65000000       7.40544000       8.00000000  F        4       0.00196709      -0.00708734      -0.44555444
Zn       0.00000000       0.00000000      11.83937929  F        3       0.00351073       0.00401408       0.56616890
Zn       2.66000000       0.00000000      11.83937929  F        3      -0.00827640      -0.00121351       0.56274247
Zn       5.32000000       0.00000000      11.83937929  F        3       0.00368583       0.01199394       0.56287378
Zn       0.00000000       2.46848000      10.30362757  F        3      -0.00504519       0.00003322       0.23185223
Zn       2.66000000       2.46848000      10.30362757  F        3       0.00034677      -0.00237297       0.23000322
Zn       5.32000000       2.46848000      10.30362757  F        3      -0.00189145       0.00102223       0.23487647
Zn       0.00000000       4.93696000      11.83937929  F        3       0.00705662      -0.00368802       0.53246707
Zn       2.66000000       4.93696000      11.83937929  F        3      -0.01038720      -0.00538761       0.53685683
Zn       5.32000000       4.93696000      11.83937929  F        3      -0.01205908      -0.00012728       0.52244663
Zn       0.00000000       7.40544000      10.30362757  F        3       0.01835340       0.00351510       0.22747028
Zn       2.66000000       7.40544000      10.30362757  F        3       0.00233090       0.00745206       0.24386011
Zn       5.32000000       7.40544000      10.30362757  F        3      -0.01852072      -0.00021413       0.22767325
Zn       1.32949936       0.04049993      14.37433149  T        2       0.00250250      -0.00479230      -0.01431184
Zn       3.98962943       0.06219380      14.37452438  T        2       0.00043841      -0.00725605      -0.01089073
Zn       6.65089436       0.05746433      14.38026847  T        2       0.00130103      -0.00418888      -0.02051048
Zn       1.32639567       2.45806453      12.72364455  T        2      -0.01099295       0.00499124      -0.00792491
Zn       3.98410329       2.45303321      12.72544039  T        2       0.01543312       0.01109363      -0.00944538
Zn       6.64447972       2.47869267      12.72723019  T        2       0.00050490       0.00319965       0.01000159
Zn       1.31995703       4.93108514      14.39441125  T        2      -0.00119183      -0.00052383      -0.01528007
Zn       3.96762447       4.94453645      14.33624066  T        2       0.00859315      -0.00065148       0.01139292
Zn       6.63986793       4.97342783      14.31956392  T        2      -0.01294712       0.00061720       0.00882706
Zn       1.33971731       7.38481208      12.73565938  T        2      -0.01768316       0.01233768      -0.00356643
Zn       3.99138171       7.41825687      12.73621287  T        2       0.01083651      -0.00267021       0.00039777
Zn       6.65127910       7.42090872      12.71022791  T        2       0.00380177       0.01991459       0.02396744
Zn       0.00635147       0.07847730      16.96892822  T        1       0.00110852       0.00232027       0.00840211
Zn       2.66514247       0.08620252      16.98915270  T        1      -0.00108963      -0.00243420       0.00006283
Zn       5.32527594       0.06158892      16.96685515  T        1      -0.00211771       0.00247054       0.01031118
Zn      -0.01431847       2.50840060      15.24354877  T        1      -0.00886433       0.00463579      -0.00494626
Zn       2.63983841       2.52339654      15.22935026  T        1       0.00892028      -0.00299945       0.00355055
Zn       5.29822157       2.52163582      15.25485359  T        1       0.01154795       0.00895118      -0.00784950
Zn      -0.07563906       5.02260765      16.90691937  T        1       0.01054798       0.00673205      -0.00201962
Zn       2.58731021       5.31084054      17.02312571  T        1       0.00923407      -0.02343060      -0.01619103
Zn       5.26358264       5.04656952      16.83659044  T        1      -0.00926399       0.00512551       0.01620988
Zn       0.01329964       7.46728986      15.19595288  T        1      -0.01414892       0.00274309       0.00118376
Zn       2.67316722       7.50807320      15.23833532  T        1      -0.00075348       0.00092597      -0.00295536
Zn       5.33064667       7.51859734      15.22481689  T        1       0.01003719      -0.01807003      -0.00773046
C        2.43501465       3.99643694      20.50676742  T        0      -0.00832453       0.00244485       0.00427816
C        2.42191829       4.08326189      22.03554401  T        0      -0.00824989       0.00051553      -0.00342551
O        2.73490968       5.27767724      19.90819547  T        0      -0.02042382      -0.00483711      -0.02072375
O        2.12555611       2.76078765      22.52669642  T        0       0.00683615      -0.00865111      -0.00381630
H        1.43336959       3.71756960      20.14042693  T        0      -0.02151636      -0.00299552       0.00701950
H        3.14467582       3.21687154      20.16892471  T        0       0.01817974       0.00323095       0.03630425
H        1.65461276       4.81720613      22.35454721  T        0      -0.00128445       0.00112715       0.00365055
H        3.40789041       4.43782947      22.40810424  T        0       0.00822919      -0.02545618      -0.03366440
H        3.69525296       5.43127561      19.98036525  T        0       0.03216212       0.01369461       0.01544673
H        2.03467469       2.80664141      23.49422437  T        0      -0.00221970       0.01013692       0.01695649
