51
Lattice="7.98 0.0 0.0 0.0 9.873920000000002 0.0 0.0 0.0 24.446634438244224" Properties=species:S:1:pos:R:3:move_mask:L:1:tags:I:1:forces:R:3 charge=0 spin=0 energy=-41.18513593969092 free_energy=-41.18513593969092 stress="0.00808813593955572 -3.0257093044367646e-05 6.188963400629907e-06 -3.0257093044367646e-05 0.0047370345752363865 3.7888527442538586e-07 6.188963400629907e-06 3.7888527442538586e-07 -0.006935709563190979" pbc="T T T"
Zn       1.33000000       0.00000000       9.53575172  F        4       0.00000058      -0.00000030      -0.34029856
Zn       3.99000000       0.00000000       9.53575172  F        4       0.00000033       0.00038564      -0.35482189
Zn       6.65000000       0.00000000       9.53575172  F        4      -0.00000089      -0.00038611      -0.35482097
Zn       1.33000000       2.46848000       8.00000000  F        4      -0.00052980       0.00189739      -0.45133537
Zn       3.99000000       2.46848000       8.00000000  F        4      -0.00354411       0.00421239      -0.45238188
Zn       6.65000000       2.46848000       8.00000000  F        4       0.00095419       0.00384150      -0.45151052
Zn       1.33000000       4.93696000       9.53575172  F        4       0.00000067      -0.00000056      -0.33056396
Zn       3.99000000       4.93696000       9.53575172  F        4       0.00231383      -0.00010913      -0.33013612
Zn       6.65000000       4.93696000       9.53575172  F        4      -0.00231466       0.00010776      -0.33013630
Zn       1.33000000       7.40544000       8.00000000  F        4       0.00052936      -0.00189720      -0.45133498
Zn       3.99000000       7.40544000       8.00000000  F        4      -0.00095375      -0.00384117      -0.45150995
Zn       6.65000000       7.40544000       8.00000000  F        4       0.00354422      -0.00421233      -0.45238176
Zn       0.00000000       0.00000000      11.83937929  F        3       0.01860474      -0.00113166       0.62327152
Zn       2.66000000       0.00000000      11.83937929  F        3      -0.01860649       0.00113233       0.62327045
Zn       5.32000000       0.00000000      11.83937929  F        3      -0.00000195       0.00000025       0.61585253
Zn       0.00000000       2.46848000      10.30362757  F        3       0.01501122       0.00425816       0.21891996
Zn       2.66000000       2.46848000      10.30362757  F        3      -0.01809792       0.00282375       0.21739954
Zn       5.32000000       2.46848000      10.30362757  F        3       0.00042311       0.00480334       0.19241166
Zn       0.00000000       4.93696000      11.83937929  F        3      -0.00786564      -0.00053605       0.53450149
Zn       2.66000000       4.93696000      11.83937929  F        3       0.00786498       0.00053607       0.53449869
Zn       5.32000000       4.93696000      11.83937929  F        3       0.00000016      -0.00000028       0.54954696
Zn       0.00000000       7.40544000      10.30362757  F        3       0.01809596      -0.00282138       0.21739857
Zn       2.66000000       7.40544000      10.30362757  F        3      -0.01501370      -0.00425568       0.21891926
Zn       5.32000000       7.40544000      10.30362757  F        3      -0.00042503      -0.00480297       0.19241031
Zn       1.32999802       0.00000129      14.43850122  T        2       0.00000011       0.00000056      -0.03074934
Zn       3.99144061       0.00382275      14.45224874  T        2      -0.00397426      -0.00162378      -0.03446729
Zn       6.64855513      -0.00381851      14.45224920  T        2       0.00397715       0.00161917      -0.03446839
Zn       1.32563622       2.44871751      12.74013870  T        2       0.00292469      -0.00643840      -0.03759157
Zn       3.98717750       2.42515017      12.70967876  T        2      -0.00113802       0.01872540       0.03447879
Zn       6.64620322       2.41752377      12.71178301  T        2       0.00388293       0.01969576       0.03076624
Zn       1.33000150       4.93695889      14.34143217  T        2      -0.00000352       0.00000042       0.00795897
Zn       3.98340699       4.94023964      14.32428730  T        2       0.04007609       0.00039767      -0.02761696
Zn       6.65659322       4.93368158      14.32429057  T        2      -0.04007177      -0.00039653      -0.02761732
Zn       1.33435857       7.42520218      12.74013902  T        2      -0.00291676       0.00643825      -0.03759403
Zn       3.99379351       7.45639671      12.71178232  T        2      -0.00388242      -0.01969493       0.03076749
Zn       6.65281878       7.44877245      12.70967880  T        2       0.00114080      -0.01872822       0.03448058
Zn       0.00179981       0.00354823      17.05053126  T        1      -0.00193079       0.00007755      -0.00601741
Zn       2.65820172      -0.00354708      17.05053313  T        1       0.00192872      -0.00007706      -0.00601861
Zn       5.31999950      -0.00000063      17.07398585  T        1       0.00000116      -0.00000017      -0.00993530
Zn      -0.00917081       2.46437084      15.21606946  T        1      -0.00030256       0.00006836       0.01080232
Zn       2.65671374       2.46332318      15.20716922  T        1      -0.00036012      -0.00182571       0.01515300
Zn       5.31416330       2.45596522      15.21045632  T        1      -0.00035137       0.00644575      -0.00200516
Zn      -0.02619578       4.94718839      16.87907892  T        1       0.03302686      -0.00221896       0.01255497
Zn       2.68620669       4.92673956      16.87907925  T        1      -0.03302383       0.00221780       0.01254244
Zn       5.32000462       4.93696203      16.85410291  T        1      -0.00000080      -0.00000121       0.03448074
Zn       0.00328348       7.41059846      15.20717025  T        1       0.00036043       0.00182667       0.01515259
Zn       2.66916552       7.40955111      15.21606472  T        1       0.00030673      -0.00006842       0.01080397
Zn       5.32583544       7.41795592      15.21045633  T        1       0.00034524      -0.00644389      -0.00200631
O        1.32983014       4.93692066      20.24709941  T        0       0.01997134       0.00120174       0.00378942
H        2.09873603       4.98321578      20.84371443  T        0      -0.01473781      -0.00060391      -0.00016675
H        0.56145450       4.89073369      20.84355149  T        0      -0.00523755      -0.00059765       0.01535415
