45
Lattice="7.98 0.0 0.0 3.99 6.910882722199821 0.0 0.0 0.0 23.405440000000002" Properties=species:S:1:pos:R:3:move_mask:L:1:tags:I:1:forces:R:3 charge=0 spin=0 energy=-73.90442560450306 free_energy=-73.90442560450306 stress="0.0011998077950793856 1.6936824344721456e-05 6.971584706215343e-05 1.6936824344721456e-05 0.0011295087272414658 3.0297299911735493e-05 6.971584706215343e-05 3.0297299911735493e-05 -0.002558640975927314" pbc="T T T"
Zn      -0.00000000       1.53575172       8.00000000  F        4       0.00084428       0.00036866      -0.10844775
Zn       2.66000000       1.53575172       8.00000000  F        4      -0.01629544      -0.02575862      -0.10522142
Zn       5.32000000       1.53575172       8.00000000  F        4       0.01667487      -0.02352182      -0.10240915
Zn       1.33000000       3.83937929       8.00000000  F        4      -0.02927463      -0.00336089      -0.10271455
Zn       3.99000000       3.83937929       8.00000000  F        4      -0.00035124      -0.00031972      -0.08252522
Zn       6.65000000       3.83937929       8.00000000  F        4       0.03125353      -0.00052422      -0.10518137
Zn       2.66000000       6.14300686       8.00000000  F        4      -0.01502586       0.02665536      -0.10469228
Zn       5.32000000       6.14300686       8.00000000  F        4       0.01252296       0.02714172      -0.10240885
Zn       7.98000000       6.14300686       8.00000000  F        4       0.00015185      -0.00017352      -0.08795312
Zn       0.00000000       0.00000000      10.46848000  F        3      -0.00302670      -0.01072081       0.05783029
Zn       2.66000000       0.00000000      10.46848000  F        3       0.03442473      -0.01516445       0.07012114
Zn       5.32000000       0.00000000      10.46848000  F        3      -0.03061686      -0.02125876       0.07304409
Zn       1.33000000       2.30362757      10.46848000  F        3       0.01192169       0.00268155       0.05924194
Zn       3.99000000       2.30362757      10.46848000  F        3      -0.00107216       0.07574774       0.12336212
Zn       6.65000000       2.30362757      10.46848000  F        3      -0.00669260       0.00800393       0.05567912
Zn       2.66000000       4.60725515      10.46848000  F        3       0.06608216      -0.03647038       0.12289105
Zn       5.32000000       4.60725515      10.46848000  F        3      -0.06620684      -0.03850695       0.11830673
Zn       7.98000000       4.60725515      10.46848000  F        3      -0.00054416       0.03814059       0.06975591
Zn       0.00244415       1.53597776      12.93568938  T        2       0.00012564       0.00001045       0.01021206
Zn       2.67620870       1.54660835      12.94440551  T        2      -0.00110355      -0.00156632       0.00262952
Zn       5.30859094       1.54489834      12.93790682  T        2       0.00381801       0.00018201       0.00116994
Zn       1.34642844       3.84635412      12.94080796  T        2      -0.00124967      -0.00152293       0.00214738
Zn       3.98985609       3.83740266      13.43975348  T        2      -0.00037618      -0.00073729      -0.00794295
Zn       6.63582171       3.84681503      12.93793107  T        2       0.00182605      -0.00131350       0.00205347
Zn       2.66305442       6.12555614      12.94281059  T        2       0.00136491       0.00215599       0.00191395
Zn       5.31941610       6.12781235      12.93680081  T        2      -0.00084717       0.00166379       0.00150033
Zn       7.98229882       6.14412303      13.03472829  T        2       0.00093380       0.00009226       0.00171635
Zn       0.00432665       0.00096718      15.39620196  T        1       0.00156606      -0.00287216       0.00067939
Zn       2.66215835       0.00787747      15.53007607  T        1      -0.00577483       0.00339789      -0.00127812
Zn       5.32945383       0.00409732      15.54184781  T        1       0.00938641       0.00598738      -0.00054529
Zn       1.33632663       2.30821541      15.40318222  T        1       0.01136944       0.00630811       0.00039812
Zn       3.99827654       2.23233180      15.80811136  T        1      -0.00435644      -0.00178933       0.00764635
Zn       6.65110774       2.30690493      15.38993281  T        1       0.00041825       0.00166534       0.00056319
Zn       2.60488177       4.64735853      15.79921673  T        1      -0.00030236      -0.00367288       0.00807340
Zn       5.38752599       4.64796812      15.75828659  T        1       0.01349933       0.00965744       0.00347755
Zn       7.98724153       4.60512930      15.52760094  T        1      -0.00105279      -0.00751452      -0.00131327
C        4.00299265       3.84490430      18.73766513  T        0       0.03710428       0.01363232       0.00861744
C        5.35345951       4.31430790      19.29028977  T        0      -0.02495686      -0.00994859      -0.01680932
O        4.01081109       3.84179584      17.29845933  T        0      -0.02072640      -0.00572759       0.03997658
O        5.26494433       4.27821306      20.72881557  T        0       0.02740984       0.00778516      -0.02789324
H        3.20439807       4.51612827      19.11092316  T        0      -0.00729086       0.01408882       0.00774630
H        3.78784988       2.82666412      19.11789522  T        0      -0.00244568      -0.01367725       0.00820119
H        5.56548469       5.34239809      18.92517400  T        0      -0.01280435      -0.02890230       0.03363449
H        6.15970508       3.64573058      18.91889574  T        0      -0.02890960       0.00873335       0.03280461
H        6.11086834       4.60120931      21.08620510  T        0      -0.00139481       0.00092487       0.03194198
