38
Lattice="7.98 0.0 0.0 3.99 6.910882722199821 0.0 0.0 0.0 23.405440000000002" Properties=species:S:1:pos:R:3:move_mask:L:1:tags:I:1:forces:R:3 charge=0 spin=0 energy=-38.15765236513069 free_energy=-38.15765236513069 stress="0.001406989497186092 3.659334341931687e-07 1.9821987738006663e-05 3.659334341931687e-07 0.0012958534217145223 1.3881199203799484e-05 1.9821987738006663e-05 1.3881199203799484e-05 -0.0011119035875584455" pbc="T T T"
Zn      -0.00000000       1.53575172       8.00000000  F        4       0.00637323       0.00579110      -0.09865697
Zn       2.66000000       1.53575172       8.00000000  F        4      -0.00598742       0.00539205      -0.09894381
Zn       5.32000000       1.53575172       8.00000000  F        4       0.00001635      -0.01048361      -0.09682670
Zn       1.33000000       3.83937929       8.00000000  F        4      -0.00001988      -0.00887607      -0.09849518
Zn       3.99000000       3.83937929       8.00000000  F        4      -0.00471389      -0.00505462      -0.10413698
Zn       6.65000000       3.83937929       8.00000000  F        4       0.00471938      -0.00468057      -0.10408114
Zn       2.66000000       6.14300686       8.00000000  F        4      -0.01126343       0.00574294      -0.09584772
Zn       5.32000000       6.14300686       8.00000000  F        4       0.00024895       0.00558677      -0.10155676
Zn       7.98000000       6.14300686       8.00000000  F        4       0.01108457       0.00592176      -0.09601652
Zn       0.00000000       0.00000000      10.46848000  F        3       0.01001306      -0.02663674       0.12221684
Zn       2.66000000       0.00000000      10.46848000  F        3      -0.00645834      -0.02992135       0.12005920
Zn       5.32000000       0.00000000      10.46848000  F        3       0.00005062      -0.00092672       0.14182606
Zn       1.33000000       2.30362757      10.46848000  F        3      -0.00038530       0.00248687       0.13922749
Zn       3.99000000       2.30362757      10.46848000  F        3       0.01810673       0.01339556       0.11581506
Zn       6.65000000       2.30362757      10.46848000  F        3      -0.02272402       0.01068449       0.11416296
Zn       2.66000000       4.60725515      10.46848000  F        3       0.01799233       0.01146862       0.12035730
Zn       5.32000000       4.60725515      10.46848000  F        3      -0.00036937       0.00940439       0.20348363
Zn       7.98000000       4.60725515      10.46848000  F        3      -0.01652316       0.00741547       0.12137625
Zn      -0.00072617       1.53340047      12.96527942  T        2       0.00264268       0.00430698      -0.01878743
Zn       2.65858154       1.53033559      12.96428548  T        2      -0.00109735       0.00630561      -0.01736915
Zn       5.32174636       1.53849080      13.03546536  T        2      -0.00253738      -0.02012610      -0.03576040
Zn       1.33102214       3.83678584      12.98274300  T        2       0.00084565      -0.00596001      -0.04465896
Zn       4.00482263       3.84355595      13.06638585  T        2      -0.01680453      -0.01380773      -0.01648431
Zn       6.63696903       3.84904214      13.06503015  T        2       0.01402670      -0.02125110      -0.01568766
Zn       2.66180247       6.13744310      13.03635282  T        2      -0.01218375       0.02111586      -0.04187723
Zn       5.31708764       6.12125169      13.11618401  T        2       0.00291837       0.02856763      -0.03743641
Zn       7.97674376       6.14090774      13.03555332  T        2       0.01259538       0.01751674      -0.04277411
Zn       0.03442500      -0.03717192      15.53304157  T        1       0.00620277       0.02516185      -0.01042019
Zn       2.63792853      -0.03271930      15.53324941  T        1      -0.00920934       0.02545684      -0.00891643
Zn       5.32017690       0.00632674      15.60427951  T        1      -0.00023505       0.00141469      -0.02389423
Zn       1.33002164       2.31421492      15.50981123  T        1       0.00031575      -0.00451306      -0.00394866
Zn       4.01453584       2.36401130      15.51963919  T        1      -0.02758939      -0.00520083      -0.00893656
Zn       6.62393423       2.35114982      15.52200472  T        1       0.02890674      -0.00109977      -0.00726744
Zn       2.71454841       4.61777359      15.50256218  T        1      -0.01915082      -0.02748040       0.00295944
Zn       7.91661810       4.61085709      15.50091762  T        1       0.02008034      -0.02579085       0.00340366
O        5.31711211       4.49667383      19.21572495  T        0       0.03928019      -0.01413732       0.01914763
H        6.08666405       4.60740474      19.80274354  T        0      -0.01683731       0.00348548      -0.01281786
H        4.54822623       4.60661954      19.80207543  T        0      -0.02233007       0.00932513       0.01756324
