45
Lattice="7.98 0.0 0.0 3.99 6.910882722199821 0.0 0.0 0.0 23.405440000000002" Properties=species:S:1:pos:R:3:move_mask:L:1:tags:I:1:forces:R:3 charge=0 spin=0 energy=-73.93212586541894 free_energy=-73.93212586541894 stress="0.001900438782615757 4.3509193407212784e-05 0.00011321317120521381 4.3509193407212784e-05 0.0018572031968450073 0.0001455593208309814 0.00011321317120521381 0.0001455593208309814 -0.0018770737136820507" pbc="T T T"
Zn      -0.00000000       1.53575172       8.00000000  F        4       0.00013433       0.00160968      -0.10535663
Zn       2.66000000       1.53575172       8.00000000  F        4      -0.01208608      -0.02291363      -0.09733300
Zn       5.32000000       1.53575172       8.00000000  F        4       0.01157850      -0.02190854      -0.09505144
Zn       1.33000000       3.83937929       8.00000000  F        4      -0.01606890      -0.00283688      -0.10337421
Zn       3.99000000       3.83937929       8.00000000  F        4      -0.00062994       0.00536652      -0.08939075
Zn       6.65000000       3.83937929       8.00000000  F        4       0.01987036      -0.00173501      -0.10244448
Zn       2.66000000       6.14300686       8.00000000  F        4      -0.01331830       0.01790127      -0.10990933
Zn       5.32000000       6.14300686       8.00000000  F        4       0.01069965       0.01981369      -0.10827626
Zn       7.98000000       6.14300686       8.00000000  F        4      -0.00202972       0.01020882      -0.09248716
Zn       0.00000000       0.00000000      10.46848000  F        3      -0.00139589      -0.00436756       0.06520712
Zn       2.66000000       0.00000000      10.46848000  F        3       0.02961192       0.00364331       0.08331400
Zn       5.32000000       0.00000000      10.46848000  F        3      -0.02888393       0.00133482       0.08837773
Zn       1.33000000       2.30362757      10.46848000  F        3       0.01148006       0.00995896       0.09762774
Zn       3.99000000       2.30362757      10.46848000  F        3      -0.00037163       0.06194194       0.09607889
Zn       6.65000000       2.30362757      10.46848000  F        3      -0.01152678       0.01315691       0.09348342
Zn       2.66000000       4.60725515      10.46848000  F        3       0.05841753      -0.03312231       0.14705476
Zn       5.32000000       4.60725515      10.46848000  F        3      -0.05956474      -0.03567063       0.14426807
Zn       7.98000000       4.60725515      10.46848000  F        3      -0.00101578       0.02182954       0.08690746
Zn      -0.00339794       1.57639192      12.96302406  T        2       0.00206231      -0.00726959      -0.00028306
Zn       2.66183488       1.58160247      12.95398422  T        2       0.00375087       0.00043296      -0.00492304
Zn       5.31614862       1.58173268      12.95460005  T        2      -0.00612337       0.00323960      -0.00508628
Zn       1.34484132       3.87564493      12.97010168  T        2      -0.00503938      -0.00654492      -0.00180892
Zn       3.98750851       3.92246808      13.38341958  T        2       0.00081882      -0.00627693      -0.01056101
Zn       6.63280447       3.87633509      12.97030349  T        2       0.00253972      -0.00313946      -0.00558878
Zn       2.65455314       6.16277809      12.95700063  T        2      -0.00010129      -0.00866411      -0.00668316
Zn       5.32369882       6.16246732      12.95728256  T        2      -0.00147496      -0.00737629      -0.00722217
Zn       7.98112686       6.16999081      13.02128138  T        2      -0.00263478      -0.01504802       0.00558845
Zn      -0.00704831      -0.08751175      15.37414748  T        1       0.01002548       0.01372563      -0.00186182
Zn       2.63901953      -0.07625202      15.48513574  T        1      -0.00441011      -0.00802862       0.00810118
Zn       5.33254539      -0.07823394      15.49344069  T        1      -0.00466634      -0.00042503       0.01034813
Zn       1.32977542       2.24556304      15.49983501  T        1      -0.00268770       0.00661479       0.00091293
Zn       3.98097440       2.21735854      15.48893009  T        1       0.00886516      -0.00258992      -0.01389455
Zn       6.63983349       2.24328604      15.49614594  T        1      -0.00167256       0.00151323      -0.00174711
Zn       2.56457489       4.54028127      16.08574173  T        1       0.02236699      -0.00126156       0.01035184
Zn       5.39307239       4.53120356      16.05748180  T        1       0.00441945       0.00168127      -0.01118354
Zn       7.97189575       4.54484349      15.57764701  T        1       0.00457445       0.00618211       0.00365385
C        4.00888107       4.61600108      19.00627162  T        0       0.02227456       0.02151558       0.00615747
C        5.36215841       5.10259934      19.54006767  T        0      -0.00548244      -0.00097112      -0.00333646
O        3.99579291       4.64030027      17.57790410  T        0       0.02235536      -0.00815689       0.00729364
O        5.32415590       5.03167949      20.97953901  T        0      -0.01012565      -0.01259169      -0.01466942
H        3.20881003       5.27718622      19.39665911  T        0      -0.01871807      -0.01491343       0.03471464
H        3.81801064       3.58961079      19.38831307  T        0      -0.00325346       0.01646627      -0.00262544
H        5.54470137       6.14223086      19.19747041  T        0      -0.00780918      -0.01686741      -0.01018255
H        6.16873241       4.45545388      19.13176314  T        0      -0.00212086       0.01438240       0.01179782
H        6.15590274       5.40767940      21.31915288  T        0      -0.02263378      -0.00983978       0.00404161
