48
Lattice="7.98 0.0 0.0 0.0 9.873920000000002 0.0 0.0 0.0 24.446634438244224" Properties=species:S:1:pos:R:3:move_mask:L:1:tags:I:1:forces:R:3 charge=0 spin=0 energy=-26.99873614947483 free_energy=-26.99873614947483 stress="0.00808770175440377 -2.2851044753170444e-05 7.005891803818023e-09 -2.2851044753170444e-05 0.004886618511760748 7.818386162417355e-09 7.005891803818023e-09 7.818386162417355e-09 -0.0066339716944254215" pbc="T T T"
Zn       1.33000000       0.00000000       9.53575172  F        4      -0.00000022      -0.00000021      -0.34208453
Zn       3.99000000       0.00000000       9.53575172  F        4       0.00000059      -0.00000044      -0.34208426
Zn       6.65000000       0.00000000       9.53575172  F        4      -0.00000007      -0.00000040      -0.34208432
Zn       1.33000000       2.46848000       8.00000000  F        4       0.00000125      -0.00000004      -0.45611715
Zn       3.99000000       2.46848000       8.00000000  F        4      -0.00000085       0.00000017      -0.45611686
Zn       6.65000000       2.46848000       8.00000000  F        4      -0.00000027       0.00000015      -0.45611694
Zn       1.33000000       4.93696000       9.53575172  F        4      -0.00000016      -0.00000057      -0.34208477
Zn       3.99000000       4.93696000       9.53575172  F        4       0.00000038      -0.00000094      -0.34208432
Zn       6.65000000       4.93696000       9.53575172  F        4      -0.00000021      -0.00000094      -0.34208432
Zn       1.33000000       7.40544000       8.00000000  F        4       0.00000098       0.00000002      -0.45611718
Zn       3.99000000       7.40544000       8.00000000  F        4      -0.00000109       0.00000015      -0.45611718
Zn       6.65000000       7.40544000       8.00000000  F        4      -0.00000035       0.00000031      -0.45611680
Zn       0.00000000       0.00000000      11.83937929  F        3      -0.00000024       0.00000007       0.55180949
Zn       2.66000000       0.00000000      11.83937929  F        3      -0.00000049      -0.00000005       0.55180073
Zn       5.32000000       0.00000000      11.83937929  F        3       0.00000243      -0.00000042       0.55180568
Zn       0.00000000       2.46848000      10.30362757  F        3      -0.00000076       0.00000052       0.24187584
Zn       2.66000000       2.46848000      10.30362757  F        3      -0.00000035       0.00000018       0.24187432
Zn       5.32000000       2.46848000      10.30362757  F        3       0.00000057       0.00000056       0.24187477
Zn       0.00000000       4.93696000      11.83937929  F        3      -0.00000023       0.00000029       0.55180985
Zn       2.66000000       4.93696000      11.83937929  F        3      -0.00000001       0.00000011       0.55180091
Zn       5.32000000       4.93696000      11.83937929  F        3       0.00000202       0.00000039       0.55180615
Zn       0.00000000       7.40544000      10.30362757  F        3      -0.00000018       0.00000156       0.24187341
Zn       2.66000000       7.40544000      10.30362757  F        3      -0.00000073       0.00000167       0.24187344
Zn       5.32000000       7.40544000      10.30362757  F        3       0.00000098       0.00000186       0.24187501
Zn       1.33000009       0.00000048      14.34087054  T        2      -0.00000077      -0.00000342       0.04299055
Zn       3.98999960       0.00000063      14.34086988  T        2       0.00000331      -0.00000196       0.04299269
Zn       6.65000054       0.00000065      14.34087070  T        2      -0.00000285      -0.00000218       0.04299002
Zn       1.33000026       2.46848022      12.74174950  T        2      -0.00000222      -0.00000031      -0.00159926
Zn       3.98999973       2.46848022      12.74174940  T        2       0.00000275      -0.00000001      -0.00159854
Zn       6.65000002       2.46848010      12.74174997  T        2       0.00000011      -0.00000046      -0.00159983
Zn       1.33000019       4.93696038      14.34087035  T        2      -0.00000094       0.00000052       0.04299287
Zn       3.98999958       4.93696028      14.34086993  T        2       0.00000320       0.00000055       0.04299321
Zn       6.65000040       4.93696026      14.34087079  T        2      -0.00000293       0.00000070       0.04298996
Zn       1.33000029       7.40544013      12.74174907  T        2      -0.00000208       0.00000046      -0.00159525
Zn       3.98999974       7.40544029      12.74174925  T        2       0.00000208       0.00000002      -0.00159602
Zn       6.65000006       7.40544029      12.74174877  T        2      -0.00000009       0.00000015      -0.00159669
Zn      -0.00000009       0.00000028      16.95771366  T        1      -0.00000033      -0.00000077      -0.01002983
Zn       2.65999958       0.00000021      16.95771390  T        1       0.00000096      -0.00000034      -0.01003029
Zn       5.32000044       0.00000018      16.95771388  T        1      -0.00000196      -0.00000076      -0.01003055
Zn      -0.00000010       2.46847946      15.29547809  T        1       0.00000170       0.00000105      -0.02684204
Zn       2.65999997       2.46847951      15.29547809  T        1       0.00000041       0.00000153      -0.02684018
Zn       5.32000049       2.46847956      15.29547781  T        1      -0.00000206       0.00000087      -0.02684268
Zn      -0.00000024       4.93695997      16.95771419  T        1       0.00000115       0.00000010      -0.01003036
Zn       2.65999973       4.93696006      16.95771419  T        1      -0.00000005       0.00000015      -0.01003050
Zn       5.32000044       4.93695990      16.95771444  T        1      -0.00000215       0.00000011      -0.01003100
Zn      -0.00000032       7.40544006      15.29547831  T        1       0.00000152       0.00000015      -0.02684384
Zn       2.66000001       7.40544020      15.29547816  T        1       0.00000019      -0.00000018      -0.02684112
Zn       5.32000021       7.40544010      15.29547829  T        1      -0.00000187       0.00000009      -0.02684221
