3
Lattice="20.0 0.0 0.0 0.0 20.0 0.0 0.0 0.0 20.0" Properties=species:S:1:pos:R:3:forces:R:3 charge=0 spin=0 energy=-14.151833898720183 free_energy=-14.151833898720183 stress="-5.572438905030453e-06 -3.334935255369236e-12 -2.033309268081228e-12 -3.334935255369236e-12 3.162502247192833e-06 -1.2218723946597766e-12 -2.033309268081228e-12 -1.2218723946597766e-12 0.0" pbc="T T T"
O       10.00000000       9.69667234      10.00000000      -0.00000011       0.04205339      -0.00000003
H       10.76558173      10.29828883      10.00000000       0.02911483      -0.02102670       0.00000004
H        9.23441827      10.29828883      10.00000000      -0.02911472      -0.02102668      -0.00000000
