45
Lattice="7.98 0.0 0.0 3.99 6.910882722199821 0.0 0.0 0.0 23.405440000000002" Properties=species:S:1:pos:R:3:move_mask:L:1:tags:I:1:forces:R:3 charge=0 spin=0 energy=-76.6346869650921 free_energy=-76.6346869650921 stress="0.0010957113253391335 2.27876373194037e-05 7.004043732598178e-07 2.27876373194037e-05 0.0010223250346947247 -5.449391512331719e-05 7.004043732598178e-07 -5.449391512331719e-05 -0.0021351916194209063" pbc="T T T"
Zn      -0.00000000       1.53575172       8.00000000  F        4       0.00058680      -0.00181797      -0.12501517
Zn       2.66000000       1.53575172       8.00000000  F        4       0.00084824       0.00056536      -0.12458708
Zn       5.32000000       1.53575172       8.00000000  F        4      -0.00090030      -0.00819140      -0.12079065
Zn       1.33000000       3.83937929       8.00000000  F        4      -0.00172302      -0.00036172      -0.12458662
Zn       3.99000000       3.83937929       8.00000000  F        4      -0.01004804      -0.00814859      -0.13012254
Zn       6.65000000       3.83937929       8.00000000  F        4       0.01111828      -0.00568827      -0.12957105
Zn       2.66000000       6.14300686       8.00000000  F        4      -0.00673668       0.00468816      -0.12018872
Zn       5.32000000       6.14300686       8.00000000  F        4      -0.00060708       0.01221071      -0.12955400
Zn       7.98000000       6.14300686       8.00000000  F        4       0.00690885       0.00339800      -0.12068655
Zn       0.00000000       0.00000000      10.46848000  F        3      -0.01655671      -0.02843331       0.11679159
Zn       2.66000000       0.00000000      10.46848000  F        3       0.01759161      -0.02919606       0.11524963
Zn       5.32000000       0.00000000      10.46848000  F        3      -0.00043235      -0.00815912       0.13747559
Zn       1.33000000       2.30362757      10.46848000  F        3      -0.00199865      -0.00327839       0.10359979
Zn       3.99000000       2.30362757      10.46848000  F        3       0.01884969      -0.00216028       0.11711828
Zn       6.65000000       2.30362757      10.46848000  F        3      -0.02905089      -0.00725230       0.11789065
Zn       2.66000000       4.60725515      10.46848000  F        3       0.00641497       0.02191429       0.12570073
Zn       5.32000000       4.60725515      10.46848000  F        3      -0.00230515      -0.00773171       0.16582465
Zn       7.98000000       4.60725515      10.46848000  F        3      -0.01533412       0.01419691       0.11698297
Zn      -0.01369637       1.50598486      12.97823639  T        2       0.00421491       0.01060070       0.00505905
Zn       2.64760122       1.50684680      12.97698004  T        2      -0.00201686       0.01253742       0.00606729
Zn       5.30549322       1.50102168      13.03077778  T        2       0.00547034      -0.00652191      -0.00150472
Zn       1.31606214       3.81243608      12.98201958  T        2       0.00774881      -0.00025506       0.00138020
Zn       3.94593423       3.79573289      13.02078335  T        2      -0.00796309       0.00925677       0.00659453
Zn       6.66557877       3.79261804      13.02163324  T        2       0.00927933       0.00060621       0.00932693
Zn       2.64273735       6.11811265      13.04698181  T        2      -0.00495794       0.00580168      -0.01198076
Zn       5.30950776       6.15097792      13.01367697  T        2       0.00161526       0.00187969       0.01853858
Zn       7.97398754       6.11502308      13.03893945  T        2       0.00491565       0.01225269      -0.00783923
Zn      -0.00071427      -0.01483862      15.53490527  T        1       0.00874400       0.00607873      -0.01278632
Zn       2.66192968      -0.02690100      15.52023343  T        1      -0.00013099       0.01060227      -0.00553745
Zn       5.30323247      -0.03208447      15.56809902  T        1      -0.00036870       0.00746066       0.01284841
Zn       1.31360648       2.27425623      15.49782611  T        1       0.00446973      -0.00408130      -0.00857245
Zn       3.95464744       2.28438340      15.51754927  T        1      -0.01130730      -0.00916784       0.01081667
Zn       6.62627765       2.25563031      15.52359756  T        1       0.01019684       0.00670171       0.00763896
Zn       2.63531935       4.59285596      15.55240519  T        1       0.00574728      -0.00598826      -0.01018333
Zn       7.97310944       4.55319648      15.52983776  T        1      -0.00473790       0.00088180      -0.01195636
C        5.12224117       3.80756474      21.28410307  T        0      -0.00645073      -0.01647162       0.00944675
C        5.22909584       3.91185187      22.80894861  T        0      -0.01260993      -0.00284245       0.01481884
O        5.78326100       4.90357522      20.62598907  T        0      -0.02026347      -0.01139370       0.00154328
O        4.62607394       2.72340456      23.35911258  T        0      -0.01507857      -0.01343537       0.02831336
H        4.05544909       3.73191672      20.98792402  T        0       0.03618212       0.00235922      -0.01103216
H        5.63267390       2.89123411      20.94126135  T        0       0.00214189       0.01160979      -0.00257001
H        4.70005706       4.82310717      23.16175022  T        0      -0.00954192       0.02517314      -0.01122411
H        6.29550573       4.00253852      23.10079021  T        0      -0.00210896      -0.02727573      -0.01676816
H        5.25671708       5.70829170      20.78206906  T        0       0.00620786       0.03187075      -0.00037307
H        4.60894795       2.80914549      24.32867103  T        0       0.01397686      -0.00479439      -0.01159628
