58
Lattice="7.98 0.0 0.0 0.0 9.873920000000002 0.0 0.0 0.0 24.446634438244224" Properties=species:S:1:pos:R:3:move_mask:L:1:tags:I:1:forces:R:3 charge=0 spin=0 energy=-79.4964473559649 free_energy=-79.4964473559649 stress="0.008422553816694371 -5.636764467047839e-05 -5.347581203017796e-05 -5.636764467047839e-05 0.004656841319797596 6.99640720889816e-05 -5.347581203017796e-05 6.99640720889816e-05 -0.006667854055871144" pbc="T T T"
Zn       1.33000000       0.00000000       9.53575172  F        4       0.00024283      -0.00274568      -0.32352522
Zn       3.99000000       0.00000000       9.53575172  F        4       0.00095329      -0.00043254      -0.32962933
Zn       6.65000000       0.00000000       9.53575172  F        4      -0.00081300       0.00153182      -0.33462816
Zn       1.33000000       2.46848000       8.00000000  F        4       0.00255005      -0.00038721      -0.45156372
Zn       3.99000000       2.46848000       8.00000000  F        4      -0.00148089       0.00076102      -0.45182565
Zn       6.65000000       2.46848000       8.00000000  F        4      -0.00208247       0.00245919      -0.44932729
Zn       1.33000000       4.93696000       9.53575172  F        4      -0.00631073      -0.00151811      -0.32812032
Zn       3.99000000       4.93696000       9.53575172  F        4       0.00938730      -0.00187296      -0.32939664
Zn       6.65000000       4.93696000       9.53575172  F        4      -0.00199341      -0.00621693      -0.33213356
Zn       1.33000000       7.40544000       8.00000000  F        4       0.00373271      -0.00373917      -0.44917864
Zn       3.99000000       7.40544000       8.00000000  F        4      -0.00440031      -0.00403280      -0.44712326
Zn       6.65000000       7.40544000       8.00000000  F        4       0.00196673      -0.00708702      -0.44555402
Zn       0.00000000       0.00000000      11.83937929  F        3       0.00351128       0.00401053       0.56617379
Zn       2.66000000       0.00000000      11.83937929  F        3      -0.00827618      -0.00121241       0.56274277
Zn       5.32000000       0.00000000      11.83937929  F        3       0.00368817       0.01199347       0.56287420
Zn       0.00000000       2.46848000      10.30362757  F        3      -0.00505400       0.00003507       0.23184654
Zn       2.66000000       2.46848000      10.30362757  F        3       0.00034783      -0.00237176       0.22998507
Zn       5.32000000       2.46848000      10.30362757  F        3      -0.00188504       0.00102414       0.23487772
Zn       0.00000000       4.93696000      11.83937929  F        3       0.00705861      -0.00368828       0.53246760
Zn       2.66000000       4.93696000      11.83937929  F        3      -0.01038769      -0.00538469       0.53685635
Zn       5.32000000       4.93696000      11.83937929  F        3      -0.01205831      -0.00013284       0.52243906
Zn       0.00000000       7.40544000      10.30362757  F        3       0.01835364       0.00351796       0.22746538
Zn       2.66000000       7.40544000      10.30362757  F        3       0.00233353       0.00745181       0.24384817
Zn       5.32000000       7.40544000      10.30362757  F        3      -0.01851873      -0.00021536       0.22766647
Zn       1.32950271       0.04049822      14.37433102  T        2       0.00249681      -0.00478852      -0.01431490
Zn       3.98963344       0.06219343      14.37452651  T        2       0.00043113      -0.00725540      -0.01089465
Zn       6.65089397       0.05746915      14.38027196  T        2       0.00130964      -0.00419621      -0.02051185
Zn       1.32639692       2.45806914      12.72363314  T        2      -0.01100308       0.00498614      -0.00789584
Zn       3.98409945       2.45303426      12.72543256  T        2       0.01545140       0.01109336      -0.00942561
Zn       6.64448130       2.47868318      12.72723493  T        2       0.00049446       0.00320602       0.00999511
Zn       1.31995857       4.93108209      14.39442001  T        2      -0.00120239      -0.00052188      -0.01528471
Zn       3.96761754       4.94453509      14.33624123  T        2       0.00860720      -0.00065142       0.01139044
Zn       6.63986667       4.97342546      14.31955276  T        2      -0.01294809       0.00062193       0.00884995
Zn       1.33972579       7.38481161      12.73565281  T        2      -0.01771436       0.01233659      -0.00355075
Zn       3.99138245       7.41825889      12.73620897  T        2       0.01084962      -0.00267156       0.00041176
Zn       6.65127914       7.42090666      12.71022613  T        2       0.00381512       0.01991426       0.02398130
Zn       0.00635415       0.07848055      16.96892670  T        1       0.00110652       0.00231928       0.00840396
Zn       2.66514346       0.08620270      16.98915361  T        1      -0.00108948      -0.00243229       0.00006528
Zn       5.32527568       0.06158633      16.96685864  T        1      -0.00211646       0.00247252       0.01031193
Zn      -0.01432263       2.50840672      15.24355478  T        1      -0.00886411       0.00463650      -0.00495093
Zn       2.63983421       2.52339510      15.22934961  T        1       0.00891735      -0.00300073       0.00354435
Zn       5.29821006       2.52163496      15.25485666  T        1       0.01155960       0.00895527      -0.00785332
Zn      -0.07563483       5.02261732      16.90692940  T        1       0.01053480       0.00673081      -0.00202878
Zn       2.58731075       5.31086126      17.02314636  T        1       0.00923399      -0.02343633      -0.01618983
Zn       5.26357253       5.04656522      16.83658370  T        1      -0.00924777       0.00512648       0.01620885
Zn       0.01331128       7.46729091      15.19595407  T        1      -0.01417147       0.00274307       0.00117699
Zn       2.67317033       7.50807378      15.23833819  T        1      -0.00075176       0.00092665      -0.00295879
Zn       5.33064207       7.51859925      15.22482995  T        1       0.01004971      -0.01807125      -0.00773841
C        2.43502042       3.99644474      20.50679460  T        0      -0.00837622       0.00238782       0.00418815
C        2.42191302       4.08325778      22.03557056  T        0      -0.00825866       0.00054334      -0.00335296
O        2.73491605       5.27769051      19.90822550  T        0      -0.02049297      -0.00496914      -0.02063565
O        2.12554747       2.76077897      22.52671402  T        0       0.00684879      -0.00862449      -0.00370899
H        1.43337548       3.71756933      20.14045360  T        0      -0.02144991      -0.00296138       0.00699196
H        3.14469062       3.21688593      20.16894554  T        0       0.01810525       0.00327555       0.03635503
H        1.65460068       4.81719461      22.35458172  T        0      -0.00122384       0.00111783       0.00359420
H        3.40788230       4.43782221      22.40813935  T        0       0.00821915      -0.02544891      -0.03365438
H        3.69526253       5.43126405      19.98038500  T        0       0.03222496       0.01376942       0.01542654
H        2.03467281       2.80662922      23.49424534  T        0      -0.00221013       0.01011924       0.01681717
