57
Lattice="7.98 0.0 0.0 0.0 9.873920000000002 0.0 0.0 0.0 24.446634438244224" Properties=species:S:1:pos:R:3:move_mask:L:1:tags:I:1:forces:R:3 charge=0 spin=0 energy=-76.30226570342418 free_energy=-76.30226570342418 stress="0.006533660663932766 -3.423114387048497e-05 0.00012123774809617431 -3.423114387048497e-05 0.004695058278953974 6.371332221064361e-05 0.00012123774809617431 6.371332221064361e-05 -0.006067790648246615" pbc="T T T"
Zn       1.33000000       0.00000000       9.53575172  F        4       0.00214275       0.00129179      -0.30785012
Zn       3.99000000       0.00000000       9.53575172  F        4      -0.00614505       0.00301878      -0.31343910
Zn       6.65000000       0.00000000       9.53575172  F        4       0.00452361      -0.00272042      -0.31399405
Zn       1.33000000       2.46848000       8.00000000  F        4       0.00559523      -0.00374540      -0.45625716
Zn       3.99000000       2.46848000       8.00000000  F        4      -0.01419264       0.00811727      -0.44157767
Zn       6.65000000       2.46848000       8.00000000  F        4       0.00670306       0.00951071      -0.43623936
Zn       1.33000000       4.93696000       9.53575172  F        4      -0.00191184       0.00062805      -0.34031981
Zn       3.99000000       4.93696000       9.53575172  F        4      -0.00486969      -0.00170389      -0.33852127
Zn       6.65000000       4.93696000       9.53575172  F        4       0.00533601       0.00318717      -0.33908400
Zn       1.33000000       7.40544000       8.00000000  F        4       0.00603084       0.00348626      -0.45660111
Zn       3.99000000       7.40544000       8.00000000  F        4      -0.01138592      -0.00788746      -0.44194582
Zn       6.65000000       7.40544000       8.00000000  F        4       0.00765421      -0.00934244      -0.44263300
Zn       0.00000000       0.00000000      11.83937929  F        3       0.01187361       0.00333831       0.52057785
Zn       2.66000000       0.00000000      11.83937929  F        3      -0.00640605       0.00255786       0.52163619
Zn       5.32000000       0.00000000      11.83937929  F        3      -0.00636915       0.00193278       0.52750689
Zn       0.00000000       2.46848000      10.30362757  F        3       0.02253678      -0.00169144       0.24503480
Zn       2.66000000       2.46848000      10.30362757  F        3      -0.01077858      -0.00712776       0.25162736
Zn       5.32000000       2.46848000      10.30362757  F        3      -0.00621212      -0.00667502       0.23354657
Zn       0.00000000       4.93696000      11.83937929  F        3       0.01008444      -0.00316317       0.64124244
Zn       2.66000000       4.93696000      11.83937929  F        3      -0.00680150       0.00289383       0.63673186
Zn       5.32000000       4.93696000      11.83937929  F        3       0.00886929       0.00336954       0.50895303
Zn       0.00000000       7.40544000      10.30362757  F        3       0.00997479       0.00752580       0.23505263
Zn       2.66000000       7.40544000      10.30362757  F        3      -0.01356803       0.00163525       0.23507269
Zn       5.32000000       7.40544000      10.30362757  F        3       0.00300574       0.00519234       0.22632134
Zn       1.32762864       0.00056517      14.32912431  T        2       0.00004238      -0.00029992       0.00866928
Zn       3.98761505      -0.00790183      14.33033955  T        2       0.00300508       0.00112375       0.00757891
Zn       6.65234655       0.00208897      14.33585295  T        2      -0.00284402      -0.00251996       0.00759915
Zn       1.33019943       2.50824997      12.73732263  T        2       0.00080257      -0.00820015      -0.01054309
Zn       3.98620824       2.51450855      12.73563042  T        2      -0.00146222      -0.00618925      -0.00494110
Zn       6.65445355       2.48857782      12.72837234  T        2       0.00354476      -0.00306685      -0.00813243
Zn       1.35372750       4.94118496      14.46747909  T        2      -0.00759831       0.00032096       0.00428278
Zn       4.02434568       4.95181871      14.42701481  T        2      -0.00549012       0.00317980       0.02558881
Zn       6.66359808       4.93598597      14.41944389  T        2       0.00515368      -0.00157323       0.00510173
Zn       1.32739128       7.36862412      12.72621860  T        2       0.00057925       0.00773858      -0.01035384
Zn       3.98801953       7.37599379      12.72505417  T        2      -0.00157310       0.01147292      -0.00780356
Zn       6.65090347       7.38166721      12.72839157  T        2       0.00189912       0.00067829      -0.00739662
Zn      -0.00355712      -0.00085462      16.95470989  T        1       0.00050358       0.00027916      -0.00194933
Zn       2.66282267       0.00394014      16.95205854  T        1      -0.00025451       0.00049059      -0.00164324
Zn       5.32036527      -0.00286466      16.97652172  T        1      -0.00060729      -0.00089432      -0.00436562
Zn      -0.00382046       2.45020924      15.23456265  T        1       0.00126384      -0.00442741      -0.00640712
Zn       2.65863680       2.41510927      15.22581265  T        1       0.00124395       0.00045552      -0.00388875
Zn       5.32019621       2.39716573      15.19547372  T        1      -0.00112010      -0.00196953      -0.00529103
Zn      -0.17829007       4.95603168      16.94177867  T        1       0.02587672       0.01638551       0.00903342
Zn       2.91494315       4.87097235      16.90705429  T        1       0.02933636      -0.01312396      -0.02108882
Zn       5.36555358       4.90147108      16.99440353  T        1      -0.00954721      -0.01528741      -0.02551049
Zn      -0.00286209       7.44086231      15.21811483  T        1       0.00199298       0.00536673      -0.00621521
Zn       2.65766660       7.44548970      15.21112102  T        1       0.00212176       0.00088985      -0.00601450
Zn       5.31827403       7.45381367      15.20970385  T        1       0.00150647      -0.00197062      -0.00402063
C        1.36073444       4.95095125      19.59907654  T        0      -0.02604058      -0.01134700      -0.01115721
C        2.67571276       5.43042607      20.21747708  T        0       0.00008451       0.00536396       0.00472252
O        1.39278139       5.06030172      18.16215989  T        0      -0.03201554       0.00804079      -0.02407058
O        2.51450264       5.35796664      21.64684801  T        0      -0.01218733      -0.01396354       0.00430927
H        0.53369836       5.57259129      19.99411063  T        0      -0.00220881       0.01214568      -0.03316430
H        1.16870016       3.90447497      19.91008441  T        0       0.01716054      -0.01685667      -0.03171373
H        2.89074161       6.46686686      19.88631652  T        0      -0.01951000       0.02603890       0.00028230
H        3.50958247       4.78220224      19.87457035  T        0       0.00543112      -0.01290424       0.00630557
H        3.34490369       5.65231320      22.06051503  T        0       0.00522053       0.00099430      -0.00264347
