58
Lattice="7.98 0.0 0.0 0.0 9.873920000000002 0.0 0.0 0.0 24.446634438244224" Properties=species:S:1:pos:R:3:move_mask:L:1:tags:I:1:forces:R:3 charge=0 spin=0 energy=-79.49644798838136 free_energy=-79.49644798838136 stress="0.008422500281302288 -5.626428046625351e-05 -5.34263407798757e-05 -5.626428046625351e-05 0.004656876499249505 6.989919579085564e-05 -5.34263407798757e-05 6.989919579085564e-05 -0.0066679308651474735" pbc="T T T"
Zn       1.33000000       0.00000000       9.53575172  F        4       0.00024280      -0.00274459      -0.32352194
Zn       3.99000000       0.00000000       9.53575172  F        4       0.00095323      -0.00043122      -0.32962713
Zn       6.65000000       0.00000000       9.53575172  F        4      -0.00081331       0.00153173      -0.33463052
Zn       1.33000000       2.46848000       8.00000000  F        4       0.00255091      -0.00038746      -0.45156324
Zn       3.99000000       2.46848000       8.00000000  F        4      -0.00148183       0.00076099      -0.45182496
Zn       6.65000000       2.46848000       8.00000000  F        4      -0.00208190       0.00245947      -0.44932777
Zn       1.33000000       4.93696000       9.53575172  F        4      -0.00631158      -0.00151898      -0.32811913
Zn       3.99000000       4.93696000       9.53575172  F        4       0.00938820      -0.00187339      -0.32939658
Zn       6.65000000       4.93696000       9.53575172  F        4      -0.00199376      -0.00621663      -0.33213291
Zn       1.33000000       7.40544000       8.00000000  F        4       0.00373431      -0.00373911      -0.44917890
Zn       3.99000000       7.40544000       8.00000000  F        4      -0.00440210      -0.00403284      -0.44712329
Zn       6.65000000       7.40544000       8.00000000  F        4       0.00196775      -0.00708732      -0.44555351
Zn       0.00000000       0.00000000      11.83937929  F        3       0.00351992       0.00401337       0.56617039
Zn       2.66000000       0.00000000      11.83937929  F        3      -0.00827841      -0.00120967       0.56274748
Zn       5.32000000       0.00000000      11.83937929  F        3       0.00367660       0.01199342       0.56287444
Zn       0.00000000       2.46848000      10.30362757  F        3      -0.00503985       0.00003380       0.23185557
Zn       2.66000000       2.46848000      10.30362757  F        3       0.00034641      -0.00237420       0.23000754
Zn       5.32000000       2.46848000      10.30362757  F        3      -0.00189423       0.00102369       0.23488136
Zn       0.00000000       4.93696000      11.83937929  F        3       0.00705613      -0.00368954       0.53246009
Zn       2.66000000       4.93696000      11.83937929  F        3      -0.01038869      -0.00538862       0.53685188
Zn       5.32000000       4.93696000      11.83937929  F        3      -0.01205308      -0.00013245       0.52243292
Zn       0.00000000       7.40544000      10.30362757  F        3       0.01835521       0.00351676       0.22746988
Zn       2.66000000       7.40544000      10.30362757  F        3       0.00233139       0.00745296       0.24385564
Zn       5.32000000       7.40544000      10.30362757  F        3      -0.01852138      -0.00021477       0.22767116
Zn       1.32950029       0.04049777      14.37433403  T        2       0.00249408      -0.00479269      -0.01431258
Zn       3.98962653       0.06219028      14.37452751  T        2       0.00044360      -0.00725146      -0.01089064
Zn       6.65089225       0.05746561      14.38026554  T        2       0.00130705      -0.00419103      -0.02050167
Zn       1.32639779       2.45807396      12.72364948  T        2      -0.01100379       0.00498065      -0.00793435
Zn       3.98410030       2.45304109      12.72544250  T        2       0.01544742       0.01108160      -0.00944983
Zn       6.64448190       2.47868082      12.72722908  T        2       0.00049642       0.00320800       0.01000496
Zn       1.31995327       4.93108157      14.39441507  T        2      -0.00117225      -0.00052212      -0.01527857
Zn       3.96763227       4.94453488      14.33623244  T        2       0.00857852      -0.00065137       0.01140545
Zn       6.63987273       4.97343026      14.31954822  T        2      -0.01295787       0.00061689       0.00885070
Zn       1.33972226       7.38480493      12.73565910  T        2      -0.01770337       0.01234455      -0.00356043
Zn       3.99138010       7.41825323      12.73621173  T        2       0.01084642      -0.00266547       0.00040472
Zn       6.65127871       7.42091120      12.71022648  T        2       0.00380742       0.01991321       0.02397211
Zn       0.00635128       0.07847514      16.96894238  T        1       0.00111008       0.00232028       0.00839580
Zn       2.66514344       0.08619836      16.98916215  T        1      -0.00108932      -0.00243328       0.00006058
Zn       5.32527936       0.06158296      16.96686549  T        1      -0.00211936       0.00247257       0.01030756
Zn      -0.01432212       2.50840393      15.24355757  T        1      -0.00887143       0.00463358      -0.00494758
Zn       2.63982930       2.52339524      15.22935362  T        1       0.00893263      -0.00300018       0.00355018
Zn       5.29821662       2.52163459      15.25485547  T        1       0.01154981       0.00895492      -0.00784914
Zn      -0.07563649       5.02261342      16.90692463  T        1       0.01054732       0.00673093      -0.00202713
Zn       2.58731937       5.31085883      17.02311642  T        1       0.00922479      -0.02344114      -0.01618934
Zn       5.26358512       5.04656528      16.83659325  T        1      -0.00925766       0.00512636       0.01620099
Zn       0.01330183       7.46728699      15.19595372  T        1      -0.01415682       0.00274555       0.00118414
Zn       2.67316454       7.50806353      15.23834677  T        1      -0.00074824       0.00093696      -0.00296395
Zn       5.33064414       7.51860020      15.22482313  T        1       0.01004512      -0.01807280      -0.00773610
C        2.43501531       3.99644345      20.50676548  T        0      -0.00835776       0.00238701       0.00423180
C        2.42191648       4.08326412      22.03554596  T        0      -0.00826102       0.00058791      -0.00349122
O        2.73490805       5.27767896      19.90817652  T        0      -0.02047973      -0.00488438      -0.02063785
O        2.12555192       2.76078786      22.52669366  T        0       0.00688442      -0.00864770      -0.00417389
H        1.43337130       3.71756408      20.14042528  T        0      -0.02148916      -0.00292968       0.00704957
H        3.14467122       3.21687424      20.16892154  T        0       0.01822459       0.00324549       0.03632601
H        1.65460994       4.81720679      22.35455244  T        0      -0.00127611       0.00111347       0.00362834
H        3.40788592       4.43783281      22.40810883  T        0       0.00824211      -0.02547202      -0.03366368
H        3.69525429       5.43127573      19.98031372  T        0       0.03214891       0.01364744       0.01548002
H        2.03467837       2.80663371      23.49421510  T        0      -0.00224945       0.01016262       0.01727669
