58
Lattice="7.98 0.0 0.0 0.0 9.873920000000002 0.0 0.0 0.0 24.446634438244224" Properties=species:S:1:pos:R:3:move_mask:L:1:tags:I:1:forces:R:3 charge=0 spin=0 energy=-79.45414203681376 free_energy=-79.45414203681376 stress="0.008568185918171304 -0.0001281147996392818 -7.860013358910529e-05 -0.0001281147996392818 0.0046934433710797835 0.00012478181920994966 -7.860013358910529e-05 0.00012478181920994966 -0.006425564438691196" pbc="T T T"
Zn       1.33000000       0.00000000       9.53575172  F        4      -0.00009455       0.00979041      -0.32628447
Zn       3.99000000       0.00000000       9.53575172  F        4       0.00456422      -0.00165338      -0.32229868
Zn       6.65000000       0.00000000       9.53575172  F        4      -0.00129389      -0.00577493      -0.33770972
Zn       1.33000000       2.46848000       8.00000000  F        4       0.00103219       0.00107816      -0.44169676
Zn       3.99000000       2.46848000       8.00000000  F        4      -0.00855533       0.00325219      -0.43771246
Zn       6.65000000       2.46848000       8.00000000  F        4       0.00585870       0.00567781      -0.43670017
Zn       1.33000000       4.93696000       9.53575172  F        4      -0.00060895       0.00330621      -0.32143509
Zn       3.99000000       4.93696000       9.53575172  F        4       0.01678335      -0.00885401      -0.31687999
Zn       6.65000000       4.93696000       9.53575172  F        4      -0.01022436      -0.00035933      -0.32275376
Zn       1.33000000       7.40544000       8.00000000  F        4      -0.00213425      -0.00318145      -0.44055921
Zn       3.99000000       7.40544000       8.00000000  F        4      -0.00637707      -0.00534175      -0.43475354
Zn       6.65000000       7.40544000       8.00000000  F        4       0.01007219      -0.00868819      -0.43131012
Zn       0.00000000       0.00000000      11.83937929  F        3       0.02384713      -0.00827074       0.53465617
Zn       2.66000000       0.00000000      11.83937929  F        3       0.00588713       0.03813653       0.56561214
Zn       5.32000000       0.00000000      11.83937929  F        3      -0.02531842      -0.01120852       0.54090273
Zn       0.00000000       2.46848000      10.30362757  F        3       0.01941618       0.00787274       0.27616051
Zn       2.66000000       2.46848000      10.30362757  F        3      -0.00365195      -0.01139301       0.27987581
Zn       5.32000000       2.46848000      10.30362757  F        3      -0.00387769       0.00205696       0.25869831
Zn       0.00000000       4.93696000      11.83937929  F        3      -0.01684664      -0.00772360       0.42625928
Zn       2.66000000       4.93696000      11.83937929  F        3      -0.04981056       0.03354568       0.43472737
Zn       5.32000000       4.93696000      11.83937929  F        3      -0.05275852       0.01562366       0.37402895
Zn       0.00000000       7.40544000      10.30362757  F        3       0.00206198       0.00470009       0.28099290
Zn       2.66000000       7.40544000      10.30362757  F        3       0.00830692      -0.00886584       0.27245554
Zn       5.32000000       7.40544000      10.30362757  F        3       0.02069613       0.00049838       0.27775788
Zn       1.30864617       0.16615134      14.36613363  T        2       0.00521476       0.00320067      -0.00934199
Zn       3.97073070       0.05524605      14.39859427  T        2       0.00044003      -0.00772613      -0.01660626
Zn       6.62092924      -0.07218834      14.35578390  T        2      -0.00175498      -0.01809254       0.01222987
Zn       1.34512856       2.53221694      12.76416512  T        2      -0.01221320      -0.00493850       0.00560983
Zn       4.01473752       2.49648353      12.75472537  T        2      -0.02804725       0.01523750      -0.00091459
Zn       6.66397400       2.33375190      12.74163919  T        2       0.04227703       0.01354352       0.01890224
Zn       1.20132481       5.12210987      14.32070333  T        2       0.01081573      -0.00396157       0.00490206
Zn       3.88577558       5.01093791      14.27055872  T        2      -0.00561313      -0.00609332      -0.00564804
Zn       6.52826116       4.71292466      14.22154389  T        2       0.00690312      -0.01333150       0.00419702
Zn       1.36051200       7.49305737      12.75285571  T        2       0.02392166      -0.01545987       0.01350942
Zn       4.03740140       7.48055879      12.75861506  T        2      -0.02533454       0.01948939      -0.00463864
Zn       6.68872883       7.34155709      12.77215477  T        2       0.01302931      -0.00203841       0.00007270
Zn      -0.11420092       0.18597252      16.95318083  T        1      -0.00356146       0.00284785      -0.00024381
Zn       2.55212630      -0.00594263      16.96989615  T        1      -0.00844359      -0.01248721      -0.00538650
Zn       5.21392640      -0.02025792      16.99737967  T        1       0.00047966      -0.00036851      -0.00923409
Zn       0.06143193       2.64523724      15.36316369  T        1       0.00979637       0.01209921      -0.00494894
Zn       2.72439533       2.56937785      15.27846277  T        1       0.00202373      -0.00051304       0.00073328
Zn       5.38021276       2.36351189      15.32514988  T        1       0.00826729       0.00916413      -0.00680733
Zn      -0.52644467       5.30420957      16.70842694  T        1      -0.00449090      -0.00349685       0.00151620
Zn       2.15186800       4.89422116      16.91218050  T        1       0.01006171      -0.00070355       0.01366356
Zn       4.81486247       4.90732944      16.86229421  T        1       0.01754234      -0.00753977       0.01052334
Zn       0.14491653       7.65069070      15.31605889  T        1       0.00636789      -0.00238677      -0.00094128
Zn       2.80345813       7.47324258      15.29685642  T        1       0.00402620      -0.01396106      -0.00454710
Zn       5.49252348       7.21445319      15.30500391  T        1      -0.01917475       0.00967255       0.00370532
C        1.26822531       3.85832814      20.42262539  T        0      -0.00485292      -0.01378581      -0.02215015
C        1.28603246       4.06741118      21.93669024  T        0      -0.00013561       0.00509019       0.02460911
O        1.76479629       5.02712373      19.73003859  T        0      -0.00567177       0.01108600      -0.00544370
O        0.73812881       2.87860547      22.53947065  T        0       0.01352747      -0.00168839       0.02344944
H        0.24702924       3.59639638      20.08737473  T        0      -0.01949216      -0.01002648      -0.00423800
H        1.94126930       3.03120037      20.14388905  T        0       0.00891227      -0.01319381       0.00229674
H        0.67886199       4.96098937      22.19528379  T        0      -0.01519019       0.01910724       0.00939762
H        2.32690511       4.25038443      22.27072728  T        0       0.00775578       0.00992662       0.01997800
H        1.07142815       5.71457230      19.76202833  T        0       0.02791099      -0.00578226      -0.00490706
H        0.76365113       2.99221018      23.50614598  T        0      -0.00227075      -0.01711364      -0.01533169
