51
Lattice="7.98 0.0 0.0 0.0 9.873920000000002 0.0 0.0 0.0 24.446634438244224" Properties=species:S:1:pos:R:3:move_mask:L:1:tags:I:1:forces:R:3 charge=0 spin=0 energy=-41.18530878185922 free_energy=-41.18530878185922 stress="0.008054833503764142 -4.0279018403354875e-05 -2.7952196896573036e-06 -4.0279018403354875e-05 0.004821075107426274 -4.678447433372598e-08 -2.7952196896573036e-06 -4.678447433372598e-08 -0.0068790042654302405" pbc="T T T"
Zn       1.33000000       0.00000000       9.53575172  F        4      -0.00216141       0.00000731      -0.34585327
Zn       3.99000000       0.00000000       9.53575172  F        4       0.00216248      -0.00000958      -0.34585339
Zn       6.65000000       0.00000000       9.53575172  F        4      -0.00000099      -0.00000203      -0.36150980
Zn       1.33000000       2.46848000       8.00000000  F        4       0.00012036       0.00202855      -0.44978189
Zn       3.99000000       2.46848000       8.00000000  F        4      -0.00293272       0.00269543      -0.45020208
Zn       6.65000000       2.46848000       8.00000000  F        4      -0.00069583       0.00579348      -0.45034647
Zn       1.33000000       4.93696000       9.53575172  F        4      -0.00401029      -0.00002879      -0.32911584
Zn       3.99000000       4.93696000       9.53575172  F        4       0.00401203       0.00002819      -0.32911703
Zn       6.65000000       4.93696000       9.53575172  F        4      -0.00000101       0.00000066      -0.32558981
Zn       1.33000000       7.40544000       8.00000000  F        4       0.00293189      -0.00269400      -0.45020369
Zn       3.99000000       7.40544000       8.00000000  F        4      -0.00011981      -0.00202682      -0.44978476
Zn       6.65000000       7.40544000       8.00000000  F        4       0.00069635      -0.00579148      -0.45034850
Zn       0.00000000       0.00000000      11.83937929  F        3       0.03300704       0.00271967       0.62324822
Zn       2.66000000       0.00000000      11.83937929  F        3      -0.00000021      -0.00000021       0.64365608
Zn       5.32000000       0.00000000      11.83937929  F        3      -0.03300728      -0.00272430       0.62324542
Zn       0.00000000       2.46848000      10.30362757  F        3       0.01251962       0.00467291       0.20531651
Zn       2.66000000       2.46848000      10.30362757  F        3      -0.00292114       0.00334420       0.21006945
Zn       5.32000000       2.46848000      10.30362757  F        3      -0.01515787       0.00557338       0.20476639
Zn       0.00000000       4.93696000      11.83937929  F        3      -0.02654850       0.00285475       0.53019202
Zn       2.66000000       4.93696000      11.83937929  F        3      -0.00000079       0.00000210       0.51579320
Zn       5.32000000       4.93696000      11.83937929  F        3       0.02655214      -0.00285356       0.53019142
Zn       0.00000000       7.40544000      10.30362757  F        3       0.01515530      -0.00557393       0.20476551
Zn       2.66000000       7.40544000      10.30362757  F        3       0.00292007      -0.00334366       0.21006417
Zn       5.32000000       7.40544000      10.30362757  F        3      -0.01251421      -0.00467057       0.20531720
Zn       1.33414824       0.00161082      14.48280063  T        2      -0.00989089      -0.00093041      -0.02814017
Zn       3.98585299      -0.00161867      14.48280191  T        2       0.00988873       0.00092499      -0.02814467
Zn       6.65000040      -0.00000516      14.43838712  T        2       0.00000035       0.00000261       0.01016601
Zn       1.33354687       2.44359072      12.72677407  T        2      -0.03876770      -0.00871420      -0.00331486
Zn       3.97414393       2.43050076      12.72478864  T        2       0.04494789      -0.00666774       0.00031774
Zn       6.64534655       2.40547818      12.70590108  T        2      -0.00046589       0.03379231       0.02629029
Zn       1.32235038       4.94437497      14.31272246  T        2       0.02220835      -0.00047923       0.00291493
Zn       3.99764837       4.92956216      14.31271735  T        2      -0.02220479       0.00048059       0.00292304
Zn       6.65000062       4.93696103      14.33420209  T        2      -0.00000030       0.00000114      -0.04585932
Zn       1.34585588       7.44342143      12.72478520  T        2      -0.04494250       0.00666883       0.00032017
Zn       3.98645448       7.43033444      12.72676883  T        2       0.03876873       0.00871431      -0.00330486
Zn       6.65465695       7.46843728      12.70590382  T        2       0.00045142      -0.03379641       0.02628416
Zn      -0.00628219      -0.00436331      17.11942835  T        1       0.01057880       0.00044516      -0.04009193
Zn       2.66000491       0.00001020      17.10091797  T        1      -0.00000871      -0.00000545      -0.02252014
Zn       5.32628313       0.00437636      17.11942173  T        1      -0.01056883      -0.00045096      -0.04009536
Zn      -0.01206293       2.46344240      15.18590393  T        1      -0.00991178      -0.00946399       0.01444119
Zn       2.64354619       2.49326180      15.23419727  T        1       0.00678858      -0.01722343       0.00758492
Zn       5.30428834       2.47089345      15.18357836  T        1       0.01338348      -0.01103719       0.01751004
Zn       0.00232562       4.91473420      16.84158927  T        1      -0.01687189       0.00184247       0.02102952
Zn       2.66000063       4.93691839      16.88508811  T        1       0.00000107      -0.00000015       0.02946932
Zn       5.31767475       4.95916690      16.84158904  T        1       0.01687314      -0.00184493       0.02102080
Zn       0.01570986       7.40302893      15.18358042  T        1      -0.01337845       0.01103492       0.01751350
Zn       2.67645111       7.38065050      15.23419500  T        1      -0.00678542       0.01722346       0.00758322
Zn       5.33206340       7.41047368      15.18590761  T        1       0.00990494       0.00946225       0.01444217
O        2.66007541       4.93748665      19.97542958  T        0      -0.00909893      -0.00004070       0.00825135
H        3.43220859       4.94869283      20.56922923  T        0       0.00124270       0.00035868       0.01073721
H        1.88771687       4.92474165      20.56929429  T        0       0.00785252      -0.00029863       0.00375259
