57
Lattice="7.98 0.0 0.0 0.0 9.873920000000002 0.0 0.0 0.0 24.446634438244224" Properties=species:S:1:pos:R:3:move_mask:L:1:tags:I:1:forces:R:3 charge=0 spin=0 energy=-76.28085028230826 free_energy=-76.28085028230826 stress="0.0077386560436810865 -0.00014271149970213157 0.00013403997067013308 -0.00014271149970213157 0.0048064202702229235 9.999907034709951e-05 0.00013403997067013308 9.999907034709951e-05 -0.00614392692680268" pbc="T T T"
Zn       1.33000000       0.00000000       9.53575172  F        4       0.01109380      -0.00365063      -0.30945483
Zn       3.99000000       0.00000000       9.53575172  F        4       0.00175276       0.01035932      -0.32180908
Zn       6.65000000       0.00000000       9.53575172  F        4      -0.00792610      -0.00748170      -0.31532860
Zn       1.33000000       2.46848000       8.00000000  F        4       0.05522412       0.00190308      -0.44232908
Zn       3.99000000       2.46848000       8.00000000  F        4      -0.03955416      -0.00238190      -0.44343069
Zn       6.65000000       2.46848000       8.00000000  F        4      -0.01356247       0.01399091      -0.41715869
Zn       1.33000000       4.93696000       9.53575172  F        4      -0.01244403       0.00384304      -0.32116568
Zn       3.99000000       4.93696000       9.53575172  F        4       0.01659333      -0.00039250      -0.31522688
Zn       6.65000000       4.93696000       9.53575172  F        4      -0.01146742       0.01661488      -0.34272394
Zn       1.33000000       7.40544000       8.00000000  F        4       0.02950512       0.00104008      -0.44684783
Zn       3.99000000       7.40544000       8.00000000  F        4      -0.02812349      -0.00445982      -0.44526458
Zn       6.65000000       7.40544000       8.00000000  F        4      -0.00024429      -0.00991814      -0.42932013
Zn       0.00000000       0.00000000      11.83937929  F        3       0.03846471      -0.02579991       0.52855253
Zn       2.66000000       0.00000000      11.83937929  F        3      -0.01959348       0.04557549       0.49956402
Zn       5.32000000       0.00000000      11.83937929  F        3      -0.02952811       0.02184888       0.52885407
Zn       0.00000000       2.46848000      10.30362757  F        3       0.01538149      -0.00021869       0.23373117
Zn       2.66000000       2.46848000      10.30362757  F        3       0.03325572      -0.00751258       0.31671619
Zn       5.32000000       2.46848000      10.30362757  F        3      -0.06908122      -0.00355037       0.30736816
Zn       0.00000000       4.93696000      11.83937929  F        3       0.11090561      -0.00610683       0.42291468
Zn       2.66000000       4.93696000      11.83937929  F        3      -0.01812211       0.02598702       0.55467296
Zn       5.32000000       4.93696000      11.83937929  F        3      -0.05754870       0.02304435       0.42170051
Zn       0.00000000       7.40544000      10.30362757  F        3      -0.00443405       0.00452029       0.26397908
Zn       2.66000000       7.40544000      10.30362757  F        3      -0.00481007      -0.01875651       0.24058774
Zn       5.32000000       7.40544000      10.30362757  F        3       0.02360805       0.00304873       0.25454026
Zn       1.32762864       0.00056517      14.32912431  T        2      -0.01143866       0.00433601       0.01579245
Zn       3.98761505      -0.00790183      14.33033955  T        2       0.01046963      -0.00551873       0.01036292
Zn       6.65234655       0.00208897      14.33585295  T        2      -0.00064561      -0.01086835       0.01918290
Zn       1.33019943       2.50824997      12.73732263  T        2      -0.00441719      -0.00917127      -0.00237555
Zn       3.98620824       2.51450855      12.73563042  T        2      -0.00425495      -0.00277184      -0.00690417
Zn       6.65445355       2.48857782      12.72837234  T        2       0.00742994       0.00906926      -0.00441053
Zn       1.35372750       4.94118496      14.46747909  T        2       0.01576719      -0.00053179       0.00331411
Zn       4.02434568       4.95181871      14.42701481  T        2      -0.02670017      -0.02282976       0.00461807
Zn       6.66359808       4.93598597      14.41944389  T        2       0.02127836      -0.00493750      -0.01602020
Zn       1.32739128       7.36862412      12.72621860  T        2      -0.00606893       0.00128089      -0.00605084
Zn       3.98801953       7.37599379      12.72505417  T        2       0.00493737      -0.01015354      -0.00199770
Zn       6.65090347       7.38166721      12.72839157  T        2      -0.00652729      -0.02282730      -0.00456602
Zn      -0.00355712      -0.00085462      16.95470989  T        1       0.00741007       0.00736904       0.00727050
Zn       2.66282267       0.00394014      16.95205854  T        1       0.00432491      -0.00544075       0.00275538
Zn       5.32036527      -0.00286466      16.97652172  T        1      -0.00174110       0.00261312       0.00121607
Zn      -0.00382046       2.45020924      15.23456265  T        1       0.00268138       0.00082921       0.00423892
Zn       2.65863680       2.41510927      15.22581265  T        1       0.01380474      -0.01256452       0.00726213
Zn       5.32019621       2.39716573      15.19547372  T        1      -0.00130449      -0.01626713      -0.00754867
Zn      -0.17829007       4.95603168      16.94177867  T        1      -0.01086438       0.00759264      -0.01038654
Zn       2.91494315       4.87097235      16.90705429  T        1       0.02176321       0.02178691      -0.02243927
Zn       5.36555358       4.90147108      16.99440353  T        1       0.00513209       0.00307164      -0.00107063
Zn      -0.00286209       7.44086231      15.21811483  T        1       0.00008554       0.01093264      -0.00985615
Zn       2.65766660       7.44548970      15.21112102  T        1      -0.00132075      -0.00601947       0.00290643
Zn       5.31827403       7.45381367      15.20970385  T        1      -0.00734594       0.01383516       0.00043035
C        1.36073444       4.95095125      19.59907654  T        0       0.00299284       0.00600928      -0.00658423
C        2.67571276       5.43042607      20.21747708  T        0      -0.00473909      -0.00412286       0.00240304
O        1.39278139       5.06030172      18.16215989  T        0      -0.01041895      -0.02131006       0.02698655
O        2.51450264       5.35796664      21.64684801  T        0       0.00376347       0.01281201       0.00028342
H        0.53369836       5.57259129      19.99411063  T        0       0.00135356      -0.01673561      -0.02228996
H        1.16870016       3.90447497      19.91008441  T        0      -0.00331542      -0.00444651      -0.02737231
H        2.89074161       6.46686686      19.88631652  T        0      -0.01546701      -0.01415213       0.01107992
H        3.50958247       4.78220224      19.87457035  T        0      -0.01054811      -0.00167452       0.01393870
H        3.34490369       5.65231320      22.06051503  T        0      -0.01542132       0.00925949      -0.00729054
