58
Lattice="7.98 0.0 0.0 0.0 9.873920000000002 0.0 0.0 0.0 24.446634438244224" Properties=species:S:1:pos:R:3:move_mask:L:1:tags:I:1:forces:R:3 charge=0 spin=0 energy=-79.44712692098008 free_energy=-79.44712692098008 stress="0.008444264996448472 -0.00013204414516034522 -6.372926709502745e-05 -0.00013204414516034522 0.004618573339651921 0.00014137568460475722 -6.372926709502745e-05 0.00014137568460475722 -0.00652287551191192" pbc="T T T"
Zn       1.33000000       0.00000000       9.53575172  F        4      -0.00078653       0.00905484      -0.32381555
Zn       3.99000000       0.00000000       9.53575172  F        4       0.00255928      -0.00063817      -0.32385573
Zn       6.65000000       0.00000000       9.53575172  F        4       0.00099265      -0.00492267      -0.33771926
Zn       1.33000000       2.46848000       8.00000000  F        4       0.00091521       0.00079786      -0.44331849
Zn       3.99000000       2.46848000       8.00000000  F        4      -0.01086239       0.00376272      -0.43790251
Zn       6.65000000       2.46848000       8.00000000  F        4       0.00852715       0.00592990      -0.43669894
Zn       1.33000000       4.93696000       9.53575172  F        4      -0.00147267       0.00344538      -0.32396391
Zn       3.99000000       4.93696000       9.53575172  F        4       0.01714293      -0.00874308      -0.31831580
Zn       6.65000000       4.93696000       9.53575172  F        4      -0.00908780       0.00021892      -0.32399109
Zn       1.33000000       7.40544000       8.00000000  F        4      -0.00075400      -0.00308904      -0.44140276
Zn       3.99000000       7.40544000       8.00000000  F        4      -0.00963952      -0.00599573      -0.43516803
Zn       6.65000000       7.40544000       8.00000000  F        4       0.01203938      -0.00998598      -0.43057099
Zn       0.00000000       0.00000000      11.83937929  F        3       0.02500320      -0.00650612       0.54288059
Zn       2.66000000       0.00000000      11.83937929  F        3       0.00460483       0.03425568       0.56587088
Zn       5.32000000       0.00000000      11.83937929  F        3      -0.00969128       0.01250596       0.55764216
Zn       0.00000000       2.46848000      10.30362757  F        3       0.02291400       0.00548658       0.25878450
Zn       2.66000000       2.46848000      10.30362757  F        3      -0.00820745      -0.01049727       0.26954383
Zn       5.32000000       2.46848000      10.30362757  F        3      -0.00760478      -0.00267418       0.25554714
Zn       0.00000000       4.93696000      11.83937929  F        3      -0.02312151       0.00184564       0.42798617
Zn       2.66000000       4.93696000      11.83937929  F        3      -0.05288715       0.02590900       0.43215284
Zn       5.32000000       4.93696000      11.83937929  F        3      -0.05267440       0.02289870       0.37560198
Zn       0.00000000       7.40544000      10.30362757  F        3       0.01390566       0.00521033       0.27435225
Zn       2.66000000       7.40544000      10.30362757  F        3       0.00225494      -0.00584847       0.25925109
Zn       5.32000000       7.40544000      10.30362757  F        3       0.02087933      -0.00268480       0.26293308
Zn       1.32883141       0.15304595      14.35301136  T        2       0.00058221      -0.00294536       0.00479722
Zn       3.99001824       0.05084167      14.41018584  T        2      -0.00983925      -0.00237658      -0.02525114
Zn       6.63817291      -0.07154398      14.37351580  T        2      -0.01159737       0.01560069      -0.00857361
Zn       1.33807406       2.52101192      12.75919366  T        2       0.00744792      -0.00621525       0.00376423
Zn       3.99899603       2.49932614      12.74845106  T        2       0.02143215       0.00226916       0.00909452
Zn       6.67085895       2.36568123      12.73251003  T        2      -0.02555699      -0.03218818       0.01288321
Zn       1.18663914       5.10446050      14.32699808  T        2       0.02472090      -0.00248761       0.00613785
Zn       3.87707440       5.00306240      14.26800425  T        2       0.00938361       0.00307695       0.01516692
Zn       6.52503140       4.71290505      14.22200365  T        2      -0.01079963       0.00410922       0.01982835
Zn       1.37282537       7.46234371      12.75476886  T        2      -0.02103245      -0.00130828       0.00635047
Zn       4.02801130       7.48780149      12.74584799  T        2       0.02153346       0.00716551       0.01034237
Zn       6.69302269       7.36814800      12.75879398  T        2      -0.00477739      -0.01594404       0.01202741
Zn      -0.09138967       0.18581270      16.98503110  T        1      -0.00694638      -0.00125006      -0.00543288
Zn       2.56024628      -0.00520206      16.99116014  T        1       0.00396861      -0.00894788      -0.01043685
Zn       5.23216400      -0.01664438      17.00126491  T        1      -0.00167214       0.00126038      -0.00315758
Zn       0.04254525       2.60753299      15.33511912  T        1       0.01272665       0.01247524      -0.00093179
Zn       2.71044902       2.55573412      15.27356937  T        1      -0.00217146      -0.00434083       0.00180710
Zn       5.36516483       2.36400528      15.31401227  T        1       0.00660941       0.01010525      -0.00992903
Zn      -0.49806993       5.34477928      16.70065635  T        1      -0.00934718      -0.01139013      -0.01040018
Zn       2.19383883       4.89804947      16.86786491  T        1       0.02418939      -0.00009108       0.02641928
Zn       4.86759150       4.90065481      16.86903789  T        1       0.00649628      -0.00510993      -0.00161550
Zn       0.12973297       7.66429513      15.30016140  T        1       0.02147628      -0.01127292       0.00194212
Zn       2.80256035       7.48663401      15.28464850  T        1      -0.01614581      -0.01153212       0.00083835
Zn       5.47224973       7.22548078      15.28038334  T        1      -0.00338681       0.00687876      -0.00162988
C        1.22514620       3.86705448      20.32051966  T        0       0.00556034       0.00276265       0.00675093
C        1.27405805       4.09185663      21.83286528  T        0      -0.00632982      -0.01446505       0.02655381
O        1.73890018       5.02114199      19.61412985  T        0       0.02321557      -0.01046638      -0.03275838
O        0.73932886       2.90307607      22.44783018  T        0      -0.00103149       0.00229631       0.01349918
H        0.19378279       3.63126572      19.99757409  T        0      -0.01867053      -0.01057306       0.03216257
H        1.86793210       3.01619610      20.04035001  T        0       0.03272058       0.01719036       0.00805624
H        0.67530061       4.99025854      22.09770682  T        0      -0.03432982      -0.02611161       0.00415171
H        2.32081409       4.28064030      22.14837327  T        0      -0.00788918      -0.02753996      -0.01927958
H        1.03566657       5.69831124      19.59729729  T        0       0.01662220       0.03268668       0.00015044
H        0.78940746       3.00559968      23.41428293  T        0       0.00788917       0.01894322       0.00084903
