51
Lattice="7.98 0.0 0.0 0.0 9.873920000000002 0.0 0.0 0.0 24.446634438244224" Properties=species:S:1:pos:R:3:move_mask:L:1:tags:I:1:forces:R:3 charge=0 spin=0 energy=-41.18530887184734 free_energy=-41.18530887184734 stress="0.008054242558550572 -4.025727538165965e-05 5.691961985375903e-07 -4.025727538165965e-05 0.00482106268509516 1.933135720333455e-09 5.691961985375903e-07 1.933135720333455e-09 -0.006878401113892088" pbc="T T T"
Zn       1.33000000       0.00000000       9.53575172  F        4      -0.00215958       0.00000665      -0.34584183
Zn       3.99000000       0.00000000       9.53575172  F        4       0.00216013      -0.00000911      -0.34584287
Zn       6.65000000       0.00000000       9.53575172  F        4      -0.00000169      -0.00000105      -0.36151189
Zn       1.33000000       2.46848000       8.00000000  F        4       0.00013019       0.00202930      -0.44977394
Zn       3.99000000       2.46848000       8.00000000  F        4      -0.00294265       0.00269723      -0.45019364
Zn       6.65000000       2.46848000       8.00000000  F        4      -0.00069552       0.00579825      -0.45033067
Zn       1.33000000       4.93696000       9.53575172  F        4      -0.00401667      -0.00002729      -0.32912353
Zn       3.99000000       4.93696000       9.53575172  F        4       0.00401810       0.00002705      -0.32912502
Zn       6.65000000       4.93696000       9.53575172  F        4      -0.00000105      -0.00000023      -0.32559326
Zn       1.33000000       7.40544000       8.00000000  F        4       0.00294096      -0.00269609      -0.45019460
Zn       3.99000000       7.40544000       8.00000000  F        4      -0.00013050      -0.00202841      -0.44977471
Zn       6.65000000       7.40544000       8.00000000  F        4       0.00069721      -0.00579689      -0.45033163
Zn       0.00000000       0.00000000      11.83937929  F        3       0.03302100       0.00272153       0.62322170
Zn       2.66000000       0.00000000      11.83937929  F        3       0.00000533      -0.00000109       0.64362890
Zn       5.32000000       0.00000000      11.83937929  F        3      -0.03302321      -0.00272415       0.62323409
Zn       0.00000000       2.46848000      10.30362757  F        3       0.01252310       0.00466718       0.20534596
Zn       2.66000000       2.46848000      10.30362757  F        3      -0.00291688       0.00333934       0.21010043
Zn       5.32000000       2.46848000      10.30362757  F        3      -0.01516278       0.00556797       0.20479612
Zn       0.00000000       4.93696000      11.83937929  F        3      -0.02657082       0.00285653       0.53020263
Zn       2.66000000       4.93696000      11.83937929  F        3       0.00000093       0.00000228       0.51579916
Zn       5.32000000       4.93696000      11.83937929  F        3       0.02657277      -0.00285543       0.53020263
Zn       0.00000000       7.40544000      10.30362757  F        3       0.01515957      -0.00556867       0.20479889
Zn       2.66000000       7.40544000      10.30362757  F        3       0.00291823      -0.00333709       0.21009949
Zn       5.32000000       7.40544000      10.30362757  F        3      -0.01252414      -0.00466838       0.20534515
Zn       1.33414326       0.00161449      14.48275257  T        2      -0.00988979      -0.00093179      -0.02815787
Zn       3.98585468      -0.00161820      14.48275111  T        2       0.00989374       0.00092759      -0.02815975
Zn       6.65000077      -0.00000074      14.43834973  T        2      -0.00000311      -0.00000181       0.01015070
Zn       1.33355084       2.44361700      12.72679298  T        2      -0.03879154      -0.00872011      -0.00329221
Zn       3.97414370       2.43052732      12.72480918  T        2       0.04497712      -0.00667277       0.00033627
Zn       6.64534967       2.40547339      12.70591758  T        2      -0.00046654       0.03381623       0.02632314
Zn       1.32234094       4.94436567      14.31274023  T        2       0.02220255      -0.00047587       0.00287864
Zn       3.99766207       4.92955999      14.31273976  T        2      -0.02220270       0.00047571       0.00287690
Zn       6.65000194       4.93696068      14.33420810  T        2      -0.00000188      -0.00000154      -0.04594643
Zn       1.34585636       7.44339293      12.72480917  T        2      -0.04497931       0.00667393       0.00033533
Zn       3.98644826       7.43030524      12.72679341  T        2       0.03879207       0.00872028      -0.00329458
Zn       6.65464823       7.46844514      12.70591736  T        2       0.00047220      -0.03381462       0.02632520
Zn      -0.00628827      -0.00436789      17.11937382  T        1       0.01057331       0.00044811      -0.04006310
Zn       2.66000153       0.00000895      17.10088693  T        1      -0.00000531      -0.00000413      -0.02248759
Zn       5.32628304       0.00437734      17.11937049  T        1      -0.01057070      -0.00044728      -0.04006837
Zn      -0.01205456       2.46343157      15.18601276  T        1      -0.00992554      -0.00946333       0.01436512
Zn       2.64355200       2.49318334      15.23427181  T        1       0.00678009      -0.01719543       0.00755814
Zn       5.30428935       2.47087525      15.18368590  T        1       0.01338564      -0.01103295       0.01743084
Zn       0.00227211       4.91475059      16.84156971  T        1      -0.01676635       0.00183937       0.02102865
Zn       2.66000217       4.93694185      16.88487483  T        1       0.00000174       0.00000027       0.02954949
Zn       5.31773268       4.95916386      16.84156794  T        1       0.01675348      -0.00184120       0.02102239
Zn       0.01571129       7.40304429      15.18368659  T        1      -0.01338845       0.01103480       0.01743297
Zn       2.67644612       7.38073677      15.23427497  T        1      -0.00677946       0.01719436       0.00755849
Zn       5.33205317       7.41048659      15.18601289  T        1       0.00992714       0.00946291       0.01436585
O        2.65998229       4.93720497      19.97482935  T        0       0.00188425       0.00007790       0.00874852
H        3.43223514       4.94880909      20.56870243  T        0      -0.00399793       0.00030339       0.00629183
H        1.88778040       4.92487310      20.56867387  T        0       0.00212348      -0.00037137       0.00775369
