51
Lattice="7.98 0.0 0.0 0.0 9.873920000000002 0.0 0.0 0.0 24.446634438244224" Properties=species:S:1:pos:R:3:move_mask:L:1:tags:I:1:forces:R:3 charge=0 spin=0 energy=-41.18530538730763 free_energy=-41.18530538730763 stress="0.008054375486677078 -4.0270729126487945e-05 7.53776173185886e-07 -4.0270729126487945e-05 0.004820969012399368 1.1768442915053182e-08 7.53776173185886e-07 1.1768442915053182e-08 -0.006878866560372894" pbc="T T T"
Zn       1.33000000       0.00000000       9.53575172  F        4      -0.00216011       0.00000692      -0.34584939
Zn       3.99000000       0.00000000       9.53575172  F        4       0.00216078      -0.00000888      -0.34584960
Zn       6.65000000       0.00000000       9.53575172  F        4      -0.00000060      -0.00000033      -0.36151049
Zn       1.33000000       2.46848000       8.00000000  F        4       0.00012736       0.00202954      -0.44977704
Zn       3.99000000       2.46848000       8.00000000  F        4      -0.00293846       0.00269708      -0.45019674
Zn       6.65000000       2.46848000       8.00000000  F        4      -0.00069758       0.00579672      -0.45033723
Zn       1.33000000       4.93696000       9.53575172  F        4      -0.00401457      -0.00002796      -0.32911879
Zn       3.99000000       4.93696000       9.53575172  F        4       0.00401502       0.00002787      -0.32911864
Zn       6.65000000       4.93696000       9.53575172  F        4      -0.00000040      -0.00000023      -0.32559466
Zn       1.33000000       7.40544000       8.00000000  F        4       0.00293963      -0.00269586      -0.45019776
Zn       3.99000000       7.40544000       8.00000000  F        4      -0.00012712      -0.00202855      -0.44977778
Zn       6.65000000       7.40544000       8.00000000  F        4       0.00069573      -0.00579565      -0.45033813
Zn       0.00000000       0.00000000      11.83937929  F        3       0.03300860       0.00272261       0.62323582
Zn       2.66000000       0.00000000      11.83937929  F        3      -0.00000267       0.00000152       0.64362472
Zn       5.32000000       0.00000000      11.83937929  F        3      -0.03300207      -0.00272192       0.62323719
Zn       0.00000000       2.46848000      10.30362757  F        3       0.01252548       0.00466925       0.20532468
Zn       2.66000000       2.46848000      10.30362757  F        3      -0.00291822       0.00334078       0.21006890
Zn       5.32000000       2.46848000      10.30362757  F        3      -0.01516248       0.00556982       0.20477293
Zn       0.00000000       4.93696000      11.83937929  F        3      -0.02654837       0.00285478       0.53018737
Zn       2.66000000       4.93696000      11.83937929  F        3       0.00000124       0.00000069       0.51578599
Zn       5.32000000       4.93696000      11.83937929  F        3       0.02654827      -0.00285369       0.53018749
Zn       0.00000000       7.40544000      10.30362757  F        3       0.01516383      -0.00557261       0.20476954
Zn       2.66000000       7.40544000      10.30362757  F        3       0.00291962      -0.00334087       0.21006498
Zn       5.32000000       7.40544000      10.30362757  F        3      -0.01252622      -0.00466860       0.20532012
Zn       1.33414967       0.00161437      14.48276569  T        2      -0.00989853      -0.00093044      -0.02813483
Zn       3.98585413      -0.00161593      14.48276230  T        2       0.00989446       0.00092959      -0.02813146
Zn       6.65000149      -0.00000324      14.43837776  T        2       0.00000249       0.00000075       0.01015179
Zn       1.33355942       2.44359346      12.72677860  T        2      -0.03883258      -0.00870587      -0.00329450
Zn       3.97413778       2.43050698      12.72479422  T        2       0.04500572      -0.00666160       0.00033702
Zn       6.64534895       2.40547731      12.70590095  T        2      -0.00046129       0.03380095       0.02632342
Zn       1.32235253       4.94437056      14.31272508  T        2       0.02217882      -0.00048270       0.00289215
Zn       3.99764605       4.92955953      14.31272588  T        2      -0.02217507       0.00047777       0.00289124
Zn       6.65000025       4.93695799      14.33418498  T        2      -0.00000155       0.00000350      -0.04589834
Zn       1.34586454       7.44341443      12.72479114  T        2      -0.04500942       0.00666433       0.00034126
Zn       3.98644294       7.43033111      12.72677747  T        2       0.03882902       0.00870479      -0.00329330
Zn       6.65465288       7.46844086      12.70589838  T        2       0.00046258      -0.03380239       0.02633059
Zn      -0.00627891      -0.00437157      17.11940405  T        1       0.01057680       0.00044900      -0.04008742
Zn       2.66000362       0.00000066      17.10091431  T        1       0.00000053      -0.00000046      -0.02251555
Zn       5.32628845       0.00437787      17.11939774  T        1      -0.01057887      -0.00045066      -0.04007703
Zn      -0.01205957       2.46342531      15.18595107  T        1      -0.00991352      -0.00945898       0.01440129
Zn       2.64354860       2.49321701      15.23423099  T        1       0.00678698      -0.01720984       0.00757647
Zn       5.30429007       2.47087292      15.18362503  T        1       0.01337805      -0.01103159       0.01746991
Zn       0.00229390       4.91474927      16.84153779  T        1      -0.01680767       0.00184137       0.02103503
Zn       2.66000053       4.93694787      16.88497975  T        1      -0.00000012      -0.00000015       0.02950390
Zn       5.31770803       4.95916595      16.84153613  T        1       0.01680640      -0.00184219       0.02103550
Zn       0.01571204       7.40304936      15.18362550  T        1      -0.01338146       0.01102887       0.01746803
Zn       2.67645370       7.38070180      15.23423048  T        1      -0.00678923       0.01721022       0.00757968
Zn       5.33205925       7.41049367      15.18594825  T        1       0.00991964       0.00945708       0.01440278
O        2.65997428       4.93710942      19.97499797  T        0       0.00243440       0.00006668       0.00847024
H        3.43223908       4.94886241      20.56886354  T        0      -0.00434461       0.00030577       0.00622014
H        1.88776724       4.92491694      20.56882531  T        0       0.00191151      -0.00036617       0.00808821
