39
Lattice="7.98 0.0 0.0 3.99 6.910882722199821 0.0 0.0 0.0 23.405440000000002" Properties=species:S:1:pos:R:3:move_mask:L:1:tags:I:1:forces:R:3 charge=0 spin=0 energy=-39.681847066939255 free_energy=-39.681847066939255 stress="0.0008998667802906212 -8.711641666666502e-06 -2.7045916414553352e-06 -8.711641666666502e-06 0.0009049195263930564 0.00012380305196857424 -2.7045916414553352e-06 0.00012380305196857424 -0.0015013591839004438" pbc="T T T"
Zn      -0.00000000       1.53575172       8.00000000  F        4       0.00016061       0.00126895      -0.09154848
Zn       2.66000000       1.53575172       8.00000000  F        4      -0.00150418      -0.00069348      -0.09229168
Zn       5.32000000       1.53575172       8.00000000  F        4       0.00131216      -0.00088072      -0.09205350
Zn       1.33000000       3.83937929       8.00000000  F        4      -0.00151347      -0.00130147      -0.09102587
Zn       3.99000000       3.83937929       8.00000000  F        4       0.00029897      -0.00020322      -0.09127276
Zn       6.65000000       3.83937929       8.00000000  F        4       0.00148518      -0.00141513      -0.09095480
Zn       2.66000000       6.14300686       8.00000000  F        4      -0.00076879       0.00131117      -0.08998711
Zn       5.32000000       6.14300686       8.00000000  F        4       0.00092464       0.00082722      -0.09004200
Zn       7.98000000       6.14300686       8.00000000  F        4       0.00004847       0.00007094      -0.09033950
Zn       0.00000000       0.00000000      10.46848000  F        3      -0.00055560      -0.00369665       0.08434873
Zn       2.66000000       0.00000000      10.46848000  F        3       0.00240406       0.00038328       0.09021898
Zn       5.32000000       0.00000000      10.46848000  F        3      -0.00193132      -0.00006895       0.09037212
Zn       1.33000000       2.30362757      10.46848000  F        3       0.00388049       0.00667836       0.08037458
Zn       3.99000000       2.30362757      10.46848000  F        3      -0.00021397       0.00691172       0.08944964
Zn       6.65000000       2.30362757      10.46848000  F        3      -0.00510621       0.00649934       0.08016997
Zn       2.66000000       4.60725515      10.46848000  F        3       0.00243621       0.00376672       0.09348090
Zn       5.32000000       4.60725515      10.46848000  F        3      -0.00265478       0.00383678       0.09272637
Zn       7.98000000       4.60725515      10.46848000  F        3      -0.00024127       0.00786699       0.09363773
Zn       0.00015161       1.55218836      12.96149398  T        2       0.00015277      -0.00449122       0.02927406
Zn       2.66119011       1.55270469      12.97616395  T        2       0.00955372      -0.00366845       0.01535310
Zn       5.31931730       1.55273806      12.97666593  T        2      -0.00954257      -0.00410109       0.01513155
Zn       1.33035599       3.85326092      12.97857117  T        2       0.00103551       0.01660362       0.00955081
Zn       3.99026586       3.85257153      12.98938726  T        2      -0.00012301       0.00469126      -0.00056761
Zn       6.64983677       3.85327681      12.97741355  T        2      -0.00066468       0.01643544       0.00956824
Zn       2.66015353       6.16083955      12.98147320  T        2      -0.00441563      -0.01040197       0.00464894
Zn       5.32008564       6.16074512      12.98045734  T        2       0.00509498      -0.01049888       0.00498227
Zn       7.98024986       6.16136577      12.98609215  T        2      -0.00029256      -0.00771680       0.00628623
Zn       0.00029179       0.03240448      15.50872668  T        1       0.00001952      -0.01623077      -0.00080737
Zn       2.66249809       0.03020720      15.53340919  T        1      -0.00791450      -0.00120277      -0.01522050
Zn       5.31705975       0.03004437      15.53409063  T        1       0.00765578      -0.00105475      -0.01473098
Zn       1.32927891       2.33117546      15.50732346  T        1       0.00780821       0.00169657       0.00139206
Zn       3.98915354       2.33159237      15.58340683  T        1       0.00078530       0.01008003      -0.01749705
Zn       6.64990458       2.33016955      15.50886738  T        1      -0.00696393       0.00214395       0.00163145
Zn       2.65754032       4.63729114      15.51343444  T        1       0.01374251      -0.00848201      -0.00977811
Zn       5.32304057       4.63628404      15.51372913  T        1      -0.01455766      -0.00694404      -0.00959725
Zn       7.97971183       4.63537978      15.52548295  T        1       0.00053821      -0.00397436      -0.01288692
O        3.99024305       3.27837122      19.43999717  T        0       0.00476134       0.04757416       0.01097887
H        4.75497030       3.88076472      19.39301824  T        0      -0.00869438      -0.02738239      -0.00125643
H        3.22162158       3.87648479      19.40553830  T        0       0.00355981      -0.02423730      -0.00171869
