51
Lattice="7.98 0.0 0.0 0.0 9.873920000000002 0.0 0.0 0.0 24.446634438244224" Properties=species:S:1:pos:R:3:move_mask:L:1:tags:I:1:forces:R:3 charge=0 spin=0 energy=-41.18513529227644 free_energy=-41.18513529227644 stress="0.008089292485161978 -3.022535033310782e-05 5.275494680547291e-06 -3.022535033310782e-05 0.004737541278925866 3.2043614831483387e-07 5.275494680547291e-06 3.2043614831483387e-07 -0.006934851085242396" pbc="T T T"
Zn       1.33000000       0.00000000       9.53575172  F        4       0.00000064      -0.00000054      -0.34030533
Zn       3.99000000       0.00000000       9.53575172  F        4      -0.00000162       0.00038704      -0.35481766
Zn       6.65000000       0.00000000       9.53575172  F        4       0.00000121      -0.00038733      -0.35481822
Zn       1.33000000       2.46848000       8.00000000  F        4      -0.00052713       0.00189458      -0.45134407
Zn       3.99000000       2.46848000       8.00000000  F        4      -0.00354695       0.00420517      -0.45239249
Zn       6.65000000       2.46848000       8.00000000  F        4       0.00095581       0.00383569      -0.45152092
Zn       1.33000000       4.93696000       9.53575172  F        4       0.00000040      -0.00000033      -0.33055058
Zn       3.99000000       4.93696000       9.53575172  F        4       0.00231852      -0.00010928      -0.33014619
Zn       6.65000000       4.93696000       9.53575172  F        4      -0.00231888       0.00010791      -0.33014622
Zn       1.33000000       7.40544000       8.00000000  F        4       0.00052721      -0.00189398      -0.45134401
Zn       3.99000000       7.40544000       8.00000000  F        4      -0.00095616      -0.00383546      -0.45152003
Zn       6.65000000       7.40544000       8.00000000  F        4       0.00354749      -0.00420478      -0.45239273
Zn       0.00000000       0.00000000      11.83937929  F        3       0.01854432      -0.00113246       0.62333900
Zn       2.66000000       0.00000000      11.83937929  F        3      -0.01854232       0.00113211       0.62334454
Zn       5.32000000       0.00000000      11.83937929  F        3      -0.00000201      -0.00000057       0.61593592
Zn       0.00000000       2.46848000      10.30362757  F        3       0.01500300       0.00425720       0.21888751
Zn       2.66000000       2.46848000      10.30362757  F        3      -0.01809012       0.00282133       0.21736547
Zn       5.32000000       2.46848000      10.30362757  F        3       0.00041854       0.00480135       0.19237083
Zn       0.00000000       4.93696000      11.83937929  F        3      -0.00777740      -0.00054114       0.53455693
Zn       2.66000000       4.93696000      11.83937929  F        3       0.00777841       0.00054238       0.53455889
Zn       5.32000000       4.93696000      11.83937929  F        3      -0.00000309      -0.00000100       0.54954410
Zn       0.00000000       7.40544000      10.30362757  F        3       0.01809052      -0.00282052       0.21736537
Zn       2.66000000       7.40544000      10.30362757  F        3      -0.01500024      -0.00425642       0.21888775
Zn       5.32000000       7.40544000      10.30362757  F        3      -0.00042084      -0.00479992       0.19237153
Zn       1.32999993       0.00000185      14.43854074  T        2       0.00000077      -0.00000246      -0.03073528
Zn       3.99144406       0.00382726      14.45234399  T        2      -0.00397900      -0.00163180      -0.03449844
Zn       6.64855645      -0.00382759      14.45234476  T        2       0.00397796       0.00162804      -0.03449752
Zn       1.32563537       2.44869894      12.74011085  T        2       0.00291560      -0.00641741      -0.03749470
Zn       3.98718083       2.42521445      12.70966415  T        2      -0.00118751       0.01863703       0.03449760
Zn       6.64619316       2.41758247      12.71176564  T        2       0.00394642       0.01960773       0.03079901
Zn       1.32999957       4.93696173      14.34157603  T        2       0.00000006      -0.00000121       0.00783395
Zn       3.98335905       4.94024156      14.32428911  T        2       0.04022136       0.00039666      -0.02758797
Zn       6.65663936       4.93367698      14.32428494  T        2      -0.04022175      -0.00039610      -0.02758066
Zn       1.33436615       7.42522420      12.74010965  T        2      -0.00291902       0.00641745      -0.03749171
Zn       3.99380803       7.45633549      12.71176609  T        2      -0.00394913      -0.01960483       0.03079292
Zn       6.65281927       7.44870553      12.70966455  T        2       0.00119050      -0.01863713       0.03450070
Zn       0.00180806       0.00354238      17.05071147  T        1      -0.00194119       0.00007942      -0.00607974
Zn       2.65819262      -0.00354733      17.05070843  T        1       0.00193948      -0.00007863      -0.00607568
Zn       5.31999962      -0.00000066      17.07411316  T        1       0.00000142      -0.00000005      -0.00998878
Zn      -0.00917921       2.46443795      15.21608786  T        1      -0.00028165       0.00001958       0.01077480
Zn       2.65671360       2.46339573      15.20717850  T        1      -0.00037971      -0.00187523       0.01512834
Zn       5.31415741       2.45609229      15.21035191  T        1      -0.00033914       0.00639573      -0.00197220
Zn      -0.02624253       4.94718514      16.87919206  T        1       0.03309200      -0.00221867       0.01255156
Zn       2.68622917       4.92673045      16.87919530  T        1      -0.03308455       0.00221871       0.01253999
Zn       5.31999374       4.93696150      16.85412231  T        1       0.00000055       0.00000026       0.03447202
Zn       0.00328872       7.41052611      15.20717889  T        1       0.00037585       0.00187402       0.01512718
Zn       2.66918170       7.40948065      15.21608882  T        1       0.00027535      -0.00001791       0.01077499
Zn       5.32583980       7.41782609      15.21035065  T        1       0.00034911      -0.00639473      -0.00197326
O        1.32985241       4.93696011      20.24736805  T        0       0.01703906       0.00102712       0.00528766
H        2.09872955       4.98321049      20.84400124  T        0      -0.01412144      -0.00056751       0.00021184
H        0.56143213       4.89071564      20.84386202  T        0      -0.00292066      -0.00045912       0.01345390
