39
Lattice="7.98 0.0 0.0 3.99 6.910882722199821 0.0 0.0 0.0 23.405440000000002" Properties=species:S:1:pos:R:3:move_mask:L:1:tags:I:1:forces:R:3 charge=0 spin=0 energy=-39.654605355451 free_energy=-39.654605355451 stress="0.000912433419094947 -2.6427853141781164e-06 9.035276175871497e-07 -2.6427853141781164e-06 0.0009087549053195033 8.836588848602127e-08 9.035276175871497e-07 8.836588848602127e-08 -0.0013090405026301532" pbc="T T T"
Zn      -0.00000000       1.53575172       8.00000000  F        4      -0.00001253      -0.00276712      -0.09112265
Zn       2.66000000       1.53575172       8.00000000  F        4       0.00060097       0.00147349      -0.09318225
Zn       5.32000000       1.53575172       8.00000000  F        4      -0.00057876       0.00153497      -0.09302624
Zn       1.33000000       3.83937929       8.00000000  F        4       0.00372668       0.00013694      -0.09168359
Zn       3.99000000       3.83937929       8.00000000  F        4      -0.00013525       0.00118893      -0.09643737
Zn       6.65000000       3.83937929       8.00000000  F        4      -0.00357737      -0.00005812      -0.09176180
Zn       2.66000000       6.14300686       8.00000000  F        4       0.00326510      -0.00117328      -0.09423319
Zn       5.32000000       6.14300686       8.00000000  F        4      -0.00301485      -0.00114372      -0.09447922
Zn       7.98000000       6.14300686       8.00000000  F        4      -0.00021340       0.00104019      -0.09158579
Zn       0.00000000       0.00000000      10.46848000  F        3      -0.00042136       0.00885973       0.09609687
Zn       2.66000000       0.00000000      10.46848000  F        3       0.01351407      -0.00221214       0.11430932
Zn       5.32000000       0.00000000      10.46848000  F        3      -0.01297101      -0.00281392       0.11435673
Zn       1.33000000       2.30362757      10.46848000  F        3      -0.00311873       0.00188828       0.11245660
Zn       3.99000000       2.30362757      10.46848000  F        3       0.00038757      -0.01328206       0.09683526
Zn       6.65000000       2.30362757      10.46848000  F        3       0.00277460       0.00136587       0.11247113
Zn       2.66000000       4.60725515      10.46848000  F        3      -0.01505846      -0.00062611       0.09596305
Zn       5.32000000       4.60725515      10.46848000  F        3       0.01469899      -0.00068375       0.09587961
Zn       7.98000000       4.60725515      10.46848000  F        3      -0.00027989       0.00606839       0.12416838
Zn      -0.00034126       1.53560135      13.00155329  T        2      -0.00093579       0.00572286      -0.02537505
Zn       2.66059665       1.53401913      12.99527502  T        2      -0.00756522       0.00327258      -0.01403829
Zn       5.31742828       1.53244263      12.99612127  T        2       0.00911923       0.00768893      -0.01487974
Zn       1.32573729       3.83966804      13.00557418  T        2       0.01851416       0.00419911      -0.02822921
Zn       3.98852780       3.83659324      12.95813430  T        2       0.00245290       0.02113133       0.03452986
Zn       6.65082028       3.83764129      13.00533115  T        2      -0.01304644       0.00935357      -0.02807595
Zn       2.65889660       6.14596810      12.97773103  T        2      -0.00244147      -0.02452414       0.00675616
Zn       5.32289403       6.14537337      12.97686531  T        2      -0.00478163      -0.02177150       0.00772883
Zn       7.97977417       6.14311473      13.03067454  T        2      -0.00041197      -0.00451609      -0.04617440
Zn       0.00131857      -0.00239441      15.50494667  T        1      -0.00204869       0.00578240       0.02792701
Zn       2.65383979      -0.00219912      15.56976602  T        1       0.02685972       0.00935491      -0.02718942
Zn       5.32624941      -0.00130892      15.57078964  T        1      -0.02695404       0.00863304      -0.02692791
Zn       1.33384705       2.30414931      15.53414277  T        1      -0.02370329      -0.00354759      -0.00129245
Zn       3.98838978       2.30518821      15.52121049  T        1       0.00146187      -0.00665189       0.01547183
Zn       6.64496116       2.30259401      15.53474188  T        1       0.02428604      -0.00017953      -0.00161475
Zn       2.65962089       4.60901463      15.53015536  T        1       0.01582558      -0.00459788       0.00478573
Zn       5.31960627       4.60654826      15.53049111  T        1      -0.01576102      -0.00209424       0.00458768
Zn       7.97962655       4.60722478      15.55793787  T        1      -0.00005648      -0.00566232      -0.01148395
O        3.99228267       4.68209328      19.86386714  T        0      -0.00179590       0.00478637       0.00543932
H        4.75873875       4.58431401      20.45636221  T        0      -0.00286469      -0.00292616      -0.00256841
H        3.22119986       4.59705260      20.45239181  T        0       0.00426077      -0.00225035      -0.00440170
