51
Lattice="7.98 0.0 0.0 0.0 9.873920000000002 0.0 0.0 0.0 24.446634438244224" Properties=species:S:1:pos:R:3:move_mask:L:1:tags:I:1:forces:R:3 charge=0 spin=0 energy=-41.18531109655346 free_energy=-41.18531109655346 stress="0.008054835343595012 -4.0282597827207834e-05 2.8943958245771516e-06 -4.0282597827207834e-05 0.004821116468980746 3.9395182992513074e-08 2.8943958245771516e-06 3.9395182992513074e-08 -0.006878941734275548" pbc="T T T"
Zn       1.33000000       0.00000000       9.53575172  F        4      -0.00216080       0.00000842      -0.34585208
Zn       3.99000000       0.00000000       9.53575172  F        4       0.00216214      -0.00000905      -0.34585372
Zn       6.65000000       0.00000000       9.53575172  F        4      -0.00000026      -0.00000148      -0.36151126
Zn       1.33000000       2.46848000       8.00000000  F        4       0.00012040       0.00202850      -0.44978234
Zn       3.99000000       2.46848000       8.00000000  F        4      -0.00293333       0.00269523      -0.45020193
Zn       6.65000000       2.46848000       8.00000000  F        4      -0.00069531       0.00579339      -0.45034716
Zn       1.33000000       4.93696000       9.53575172  F        4      -0.00401034      -0.00002861      -0.32911602
Zn       3.99000000       4.93696000       9.53575172  F        4       0.00401169       0.00002771      -0.32911447
Zn       6.65000000       4.93696000       9.53575172  F        4      -0.00000112      -0.00000006      -0.32559013
Zn       1.33000000       7.40544000       8.00000000  F        4       0.00293292      -0.00269454      -0.45020330
Zn       3.99000000       7.40544000       8.00000000  F        4      -0.00012084      -0.00202732      -0.44978350
Zn       6.65000000       7.40544000       8.00000000  F        4       0.00069681      -0.00579198      -0.45034820
Zn       0.00000000       0.00000000      11.83937929  F        3       0.03300284       0.00272132       0.62326366
Zn       2.66000000       0.00000000      11.83937929  F        3      -0.00000288      -0.00000031       0.64365739
Zn       5.32000000       0.00000000      11.83937929  F        3      -0.03300763      -0.00272241       0.62324214
Zn       0.00000000       2.46848000      10.30362757  F        3       0.01252071       0.00467204       0.20531948
Zn       2.66000000       2.46848000      10.30362757  F        3      -0.00292159       0.00334283       0.21007447
Zn       5.32000000       2.46848000      10.30362757  F        3      -0.01515987       0.00557714       0.20477012
Zn       0.00000000       4.93696000      11.83937929  F        3      -0.02654884       0.00285352       0.53018695
Zn       2.66000000       4.93696000      11.83937929  F        3       0.00000326       0.00000250       0.51579595
Zn       5.32000000       4.93696000      11.83937929  F        3       0.02654632      -0.00285447       0.53019261
Zn       0.00000000       7.40544000      10.30362757  F        3       0.01515867      -0.00557247       0.20476629
Zn       2.66000000       7.40544000      10.30362757  F        3       0.00292016      -0.00334307       0.21007334
Zn       5.32000000       7.40544000      10.30362757  F        3      -0.01251891      -0.00467034       0.20531827
Zn       1.33415108       0.00161277      14.48280730  T        2      -0.00989802      -0.00092952      -0.02814658
Zn       3.98585162      -0.00161609      14.48280405  T        2       0.00989162       0.00092650      -0.02814044
Zn       6.64999851      -0.00000270      14.43839143  T        2       0.00000737       0.00000036       0.01016315
Zn       1.33354508       2.44358770      12.72677680  T        2      -0.03876258      -0.00871595      -0.00331912
Zn       3.97414336       2.43049700      12.72479129  T        2       0.04494606      -0.00666601       0.00031131
Zn       6.64534637       2.40547879      12.70590222  T        2      -0.00046647       0.03379180       0.02629098
Zn       1.32235049       4.94437227      14.31271757  T        2       0.02221431      -0.00048089       0.00292579
Zn       3.99765090       4.92955646      14.31271996  T        2      -0.02221421       0.00047523       0.00291906
Zn       6.65000053       4.93695899      14.33420015  T        2      -0.00000059       0.00000224      -0.04585562
Zn       1.34585513       7.44342368      12.72478958  T        2      -0.04493812       0.00666861       0.00031242
Zn       3.98645645       7.43033626      12.72677555  T        2       0.03875870       0.00871061      -0.00332022
Zn       6.65465506       7.46843939      12.70590257  T        2       0.00046120      -0.03379577       0.02629692
Zn      -0.00627934      -0.00437953      17.11942096  T        1       0.01056466       0.00044912      -0.04008435
Zn       2.66000014       0.00000835      17.10093859  T        1       0.00000274      -0.00000367      -0.02252412
Zn       5.32628080       0.00437215      17.11942581  T        1      -0.01056314      -0.00044813      -0.04010384
Zn      -0.01206331       2.46344346      15.18590842  T        1      -0.00991082      -0.00946385       0.01443987
Zn       2.64354502       2.49326127      15.23420351  T        1       0.00679207      -0.01721921       0.00758259
Zn       5.30428899       2.47088934      15.18358137  T        1       0.01337956      -0.01103374       0.01751097
Zn       0.00232571       4.91473927      16.84159157  T        1      -0.01686421       0.00184319       0.02101815
Zn       2.66000074       4.93693537      16.88510668  T        1       0.00000300      -0.00000067       0.02946195
Zn       5.31767794       4.95917157      16.84158949  T        1       0.01685768      -0.00184513       0.02102111
Zn       0.01571235       7.40302830      15.18358407  T        1      -0.01338276       0.01103454       0.01751003
Zn       2.67645640       7.38065519      15.23419971  T        1      -0.00679649       0.01721975       0.00758322
Zn       5.33206058       7.41047482      15.18591118  T        1       0.00991865       0.00946118       0.01444075
O        2.65991126       4.93726529      19.97543900  T        0       0.00947269       0.00020673       0.00825667
H        3.43229052       4.94880445      20.56930987  T        0      -0.00803723       0.00023822       0.00360813
H        1.88779992       4.92485205      20.56923429  T        0      -0.00142989      -0.00043198       0.01088470
