58
Lattice="7.98 0.0 0.0 0.0 9.873920000000002 0.0 0.0 0.0 24.446634438244224" Properties=species:S:1:pos:R:3:move_mask:L:1:tags:I:1:forces:R:3 charge=0 spin=0 energy=-79.49644187168934 free_energy=-79.49644187168934 stress="0.008422192794417563 -5.611114567106666e-05 -5.359706001552751e-05 -5.611114567106666e-05 0.0046569520548429295 6.96423683337784e-05 -5.359706001552751e-05 6.96423683337784e-05 -0.006667230917063336" pbc="T T T"
Zn       1.33000000       0.00000000       9.53575172  F        4       0.00024177      -0.00274441      -0.32351395
Zn       3.99000000       0.00000000       9.53575172  F        4       0.00095469      -0.00043105      -0.32962224
Zn       6.65000000       0.00000000       9.53575172  F        4      -0.00081349       0.00153316      -0.33463675
Zn       1.33000000       2.46848000       8.00000000  F        4       0.00255364      -0.00038790      -0.45156178
Zn       3.99000000       2.46848000       8.00000000  F        4      -0.00148548       0.00076093      -0.45182300
Zn       6.65000000       2.46848000       8.00000000  F        4      -0.00208090       0.00246007      -0.44932660
Zn       1.33000000       4.93696000       9.53575172  F        4      -0.00631326      -0.00151901      -0.32812071
Zn       3.99000000       4.93696000       9.53575172  F        4       0.00939125      -0.00187435      -0.32939854
Zn       6.65000000       4.93696000       9.53575172  F        4      -0.00199514      -0.00621839      -0.33213323
Zn       1.33000000       7.40544000       8.00000000  F        4       0.00373708      -0.00373830      -0.44917822
Zn       3.99000000       7.40544000       8.00000000  F        4      -0.00440640      -0.00403186      -0.44712171
Zn       6.65000000       7.40544000       8.00000000  F        4       0.00196855      -0.00708795      -0.44555271
Zn       0.00000000       0.00000000      11.83937929  F        3       0.00355030       0.00401094       0.56617117
Zn       2.66000000       0.00000000      11.83937929  F        3      -0.00828188      -0.00120876       0.56275630
Zn       5.32000000       0.00000000      11.83937929  F        3       0.00365060       0.01199366       0.56287050
Zn       0.00000000       2.46848000      10.30362757  F        3      -0.00502723       0.00003300       0.23185585
Zn       2.66000000       2.46848000      10.30362757  F        3       0.00034360      -0.00237709       0.23000614
Zn       5.32000000       2.46848000      10.30362757  F        3      -0.00190606       0.00102364       0.23488170
Zn       0.00000000       4.93696000      11.83937929  F        3       0.00704721      -0.00369752       0.53243977
Zn       2.66000000       4.93696000      11.83937929  F        3      -0.01039146      -0.00539111       0.53683251
Zn       5.32000000       4.93696000      11.83937929  F        3      -0.01204373      -0.00014278       0.52240378
Zn       0.00000000       7.40544000      10.30362757  F        3       0.01837741       0.00351891       0.22746351
Zn       2.66000000       7.40544000      10.30362757  F        3       0.00232648       0.00745189       0.24385394
Zn       5.32000000       7.40544000      10.30362757  F        3      -0.01853915      -0.00021424       0.22765444
Zn       1.32950615       0.04048654      14.37433833  T        2       0.00248636      -0.00478461      -0.01431073
Zn       3.98962599       0.06218270      14.37452662  T        2       0.00044705      -0.00725270      -0.01088490
Zn       6.65089343       0.05747070      14.38025033  T        2       0.00130708      -0.00419942      -0.02047319
Zn       1.32640856       2.45810094      12.72365802  T        2      -0.01105363       0.00494835      -0.00794098
Zn       3.98408796       2.45306287      12.72544738  T        2       0.01550527       0.01105299      -0.00945392
Zn       6.64448418       2.47866022      12.72721829  T        2       0.00048597       0.00322425       0.01003167
Zn       1.31992901       4.93106324      14.39441838  T        2      -0.00111723      -0.00051851      -0.01527117
Zn       3.96764684       4.94452147      14.33621802  T        2       0.00852540      -0.00064916       0.01142278
Zn       6.63986727       4.97343519      14.31951671  T        2      -0.01296050       0.00061470       0.00888569
Zn       1.33973438       7.38477214      12.73566806  T        2      -0.01776236       0.01237302      -0.00356507
Zn       3.99136892       7.41822720      12.73621386  T        2       0.01089780      -0.00263827       0.00040876
Zn       6.65127705       7.42091802      12.71020496  T        2       0.00381995       0.01991651       0.02402784
Zn       0.00635030       0.07845428      16.96897071  T        1       0.00111043       0.00232265       0.00838085
Zn       2.66514595       0.08619165      16.98918227  T        1      -0.00108858      -0.00243050       0.00004857
Zn       5.32528249       0.06156848      16.96690147  T        1      -0.00212098       0.00247471       0.01028854
Zn      -0.01432152       2.50839790      15.24356832  T        1      -0.00888285       0.00462687      -0.00495335
Zn       2.63983335       2.52340918      15.22937784  T        1       0.00892619      -0.00301391       0.00355058
Zn       5.29821134       2.52162628      15.25485640  T        1       0.01157096       0.00895161      -0.00785707
Zn      -0.07567207       5.02260516      16.90692445  T        1       0.01055396       0.00673142      -0.00203869
Zn       2.58729942       5.31087857      17.02306110  T        1       0.00921019      -0.02345807      -0.01617943
Zn       5.26356831       5.04654696      16.83660028  T        1      -0.00925584       0.00512850       0.01618864
Zn       0.01331286       7.46727873      15.19595950  T        1      -0.01419142       0.00275124       0.00117030
Zn       2.67316724       7.50802924      15.23836703  T        1      -0.00074237       0.00096719      -0.00297389
Zn       5.33064277       7.51859186      15.22481997  T        1       0.01007386      -0.01807194      -0.00773766
C        2.43500067       3.99646506      20.50666312  T        0      -0.00834733       0.00237398       0.00420870
C        2.42190379       4.08329412      22.03545547  T        0      -0.00824471       0.00064920      -0.00395272
O        2.73488963       5.27767974      19.90800752  T        0      -0.02063343      -0.00504062      -0.02035530
O        2.12556935       2.76080938      22.52658869  T        0       0.00683809      -0.00876871      -0.00371385
H        1.43336095       3.71756003      20.14033365  T        0      -0.02157517      -0.00283092       0.00706684
H        3.14464017       3.21688323      20.16882378  T        0       0.01836941       0.00322201       0.03638819
H        1.65458200       4.81721153      22.35446133  T        0      -0.00141689       0.00124354       0.00367957
H        3.40785757       4.43788966      22.40801486  T        0       0.00842821      -0.02545117      -0.03358998
H        3.69524197       5.43127172      19.98007874  T        0       0.03216723       0.01357707       0.01554032
H        2.03470833       2.80662024      23.49412431  T        0      -0.00218860       0.01023717       0.01676391
