39
Lattice="7.98 0.0 0.0 3.99 6.910882722199821 0.0 0.0 0.0 23.405440000000002" Properties=species:S:1:pos:R:3:move_mask:L:1:tags:I:1:forces:R:3 charge=0 spin=0 energy=-39.65497765627167 free_energy=-39.65497765627167 stress="0.0008019644884522884 -5.576835578113557e-06 1.0105325275502068e-06 -5.576835578113557e-06 0.0008035116487033381 -9.647373241318965e-06 1.0105325275502068e-06 -9.647373241318965e-06 -0.0017169224714209523" pbc="T T T"
Zn      -0.00000000       1.53575172       8.00000000  F        4      -0.00096408       0.00040460      -0.09061617
Zn       2.66000000       1.53575172       8.00000000  F        4       0.00055113      -0.00062070      -0.09075576
Zn       5.32000000       1.53575172       8.00000000  F        4       0.00025528      -0.00167864      -0.09064711
Zn       1.33000000       3.83937929       8.00000000  F        4       0.00052785       0.00075137      -0.09054335
Zn       3.99000000       3.83937929       8.00000000  F        4      -0.00223157      -0.00072586      -0.08986625
Zn       6.65000000       3.83937929       8.00000000  F        4       0.00174883      -0.00147597      -0.08985116
Zn       2.66000000       6.14300686       8.00000000  F        4      -0.00193222       0.00052481      -0.09024931
Zn       5.32000000       6.14300686       8.00000000  F        4       0.00049003       0.00194129      -0.08968829
Zn       7.98000000       6.14300686       8.00000000  F        4       0.00158061       0.00078162      -0.09040246
Zn       0.00000000       0.00000000      10.46848000  F        3       0.00783132      -0.00545040       0.07632840
Zn       2.66000000       0.00000000      10.46848000  F        3      -0.00756617      -0.00507377       0.07641127
Zn       5.32000000       0.00000000      10.46848000  F        3       0.00028709       0.00140581       0.06916677
Zn       1.33000000       2.30362757      10.46848000  F        3      -0.00028146      -0.00144737       0.07062150
Zn       3.99000000       2.30362757      10.46848000  F        3       0.00225922       0.00829829       0.07671971
Zn       6.65000000       2.30362757      10.46848000  F        3      -0.00211967       0.00742732       0.07658041
Zn       2.66000000       4.60725515      10.46848000  F        3       0.00897042      -0.00190563       0.07458816
Zn       5.32000000       4.60725515      10.46848000  F        3      -0.00017418       0.00127993       0.08929220
Zn       7.98000000       4.60725515      10.46848000  F        3      -0.00968666      -0.00247756       0.07429378
Zn      -0.00081649       1.53723842      12.96176346  T        2       0.01040640       0.00435103       0.02922523
Zn       2.65995868       1.53680918      12.96126046  T        2      -0.01094764       0.00373663       0.02953296
Zn       5.31937333       1.53611696      12.96519697  T        2       0.00078146       0.00056333       0.03000426
Zn       1.32940297       3.84166295      12.95690577  T        2       0.00165625      -0.01556284       0.03122418
Zn       3.99458639       3.84275992      12.98798489  T        2      -0.01163934      -0.00707660      -0.00562318
Zn       6.64343267       3.84203608      12.98794866  T        2       0.01447991      -0.00565997      -0.00549839
Zn       2.66071026       6.14578826      12.96186016  T        2      -0.00338762      -0.00254421       0.03034008
Zn       5.32027424       6.13849876      12.99145653  T        2      -0.00110722       0.01497959      -0.00884802
Zn       7.97945212       6.14517905      12.96125953  T        2       0.00122249      -0.00084677       0.03065187
Zn       0.00074447      -0.00177174      15.50087483  T        1       0.00078796      -0.00057971       0.01295857
Zn       2.66256771      -0.00243265      15.50067293  T        1      -0.00327974       0.00025138       0.01254960
Zn       5.32019058       0.00001196      15.55067108  T        1      -0.00041412      -0.00259324      -0.04490855
Zn       1.33034342       2.30065785      15.53469252  T        1       0.00027304       0.00504228      -0.03263735
Zn       3.99046190       2.30329240      15.50312544  T        1      -0.00126810       0.00416355       0.01018008
Zn       6.64824802       2.30097578      15.50405050  T        1       0.00244534       0.00662677       0.00935912
Zn       2.65860830       4.60822623      15.48155211  T        1       0.00788205      -0.00350529       0.02492470
Zn       5.32034045       4.60624658      15.62229786  T        1      -0.00014509      -0.00171273      -0.04716207
Zn       7.98115197       4.60548949      15.48152046  T        1      -0.00723292      -0.00147508       0.02528463
O        5.32019526       4.57999708      19.48139943  T        0      -0.00076597      -0.00334762       0.00691725
H        6.08914623       4.61445834      20.07773456  T        0       0.00242753       0.00163574      -0.00456936
H        4.55109915       4.61265776      20.07768407  T        0      -0.00172042       0.00159459      -0.00528785
