48
Lattice="7.98 0.0 0.0 0.0 9.873920000000002 0.0 0.0 0.0 24.446634438244224" Properties=species:S:1:pos:R:3:move_mask:L:1:tags:I:1:forces:R:3 charge=0 spin=0 energy=-26.998732567448002 free_energy=-26.998732567448002 stress="0.00808769708424214 -2.2852246379622817e-05 -1.7210668237935012e-09 -2.2852246379622817e-05 0.004886649633789445 1.0558120016513317e-08 -1.7210668237935012e-09 1.0558120016513317e-08 -0.006633937044796138" pbc="T T T"
Zn       1.33000000       0.00000000       9.53575172  F        4      -0.00000010      -0.00000056      -0.34208506
Zn       3.99000000       0.00000000       9.53575172  F        4       0.00000049      -0.00000041      -0.34208530
Zn       6.65000000       0.00000000       9.53575172  F        4      -0.00000032      -0.00000074      -0.34208432
Zn       1.33000000       2.46848000       8.00000000  F        4       0.00000053      -0.00000009      -0.45611748
Zn       3.99000000       2.46848000       8.00000000  F        4      -0.00000007      -0.00000029      -0.45611748
Zn       6.65000000       2.46848000       8.00000000  F        4      -0.00000029       0.00000002      -0.45611671
Zn       1.33000000       4.93696000       9.53575172  F        4       0.00000002      -0.00000050      -0.34208483
Zn       3.99000000       4.93696000       9.53575172  F        4       0.00000020      -0.00000007      -0.34208471
Zn       6.65000000       4.93696000       9.53575172  F        4      -0.00000008      -0.00000041      -0.34208497
Zn       1.33000000       7.40544000       8.00000000  F        4       0.00000003       0.00000034      -0.45611736
Zn       3.99000000       7.40544000       8.00000000  F        4      -0.00000085       0.00000046      -0.45611694
Zn       6.65000000       7.40544000       8.00000000  F        4       0.00000045       0.00000030      -0.45611691
Zn       0.00000000       0.00000000      11.83937929  F        3       0.00000065       0.00000070       0.55180973
Zn       2.66000000       0.00000000      11.83937929  F        3      -0.00000131      -0.00000001       0.55180103
Zn       5.32000000       0.00000000      11.83937929  F        3       0.00000190      -0.00000079       0.55180568
Zn       0.00000000       2.46848000      10.30362757  F        3      -0.00000137       0.00000029       0.24187681
Zn       2.66000000       2.46848000      10.30362757  F        3      -0.00000095       0.00000124       0.24187648
Zn       5.32000000       2.46848000      10.30362757  F        3       0.00000169       0.00000037       0.24187645
Zn       0.00000000       4.93696000      11.83937929  F        3       0.00000073       0.00000001       0.55180335
Zn       2.66000000       4.93696000      11.83937929  F        3       0.00000020      -0.00000004       0.55180937
Zn       5.32000000       4.93696000      11.83937929  F        3      -0.00000182       0.00000025       0.55180687
Zn       0.00000000       7.40544000      10.30362757  F        3       0.00000021       0.00000174       0.24187636
Zn       2.66000000       7.40544000      10.30362757  F        3       0.00000039       0.00000135       0.24187467
Zn       5.32000000       7.40544000      10.30362757  F        3      -0.00000048       0.00000275       0.24187753
Zn       1.33000025       0.00000056      14.34087042  T        2      -0.00000200      -0.00000229       0.04299102
Zn       3.98999966       0.00000044      14.34087026  T        2       0.00000232      -0.00000047       0.04299245
Zn       6.65000026       0.00000044      14.34087044  T        2      -0.00000060      -0.00000197       0.04299067
Zn       1.33000025       2.46848017      12.74174941  T        2      -0.00000162       0.00000005      -0.00159848
Zn       3.98999958       2.46848012      12.74174911  T        2       0.00000252      -0.00000188      -0.00159649
Zn       6.64999998       2.46848012      12.74174965  T        2      -0.00000067      -0.00000078      -0.00159802
Zn       1.33000012       4.93696067      14.34087028  T        2       0.00000033      -0.00000129       0.04299388
Zn       3.98999956       4.93696046      14.34087010  T        2       0.00000267      -0.00000113       0.04299423
Zn       6.65000035       4.93696028      14.34087030  T        2      -0.00000268      -0.00000069       0.04299462
Zn       1.33000013       7.40544032      12.74174912  T        2      -0.00000038       0.00000087      -0.00159603
Zn       3.98999972       7.40544027      12.74174919  T        2       0.00000273      -0.00000000      -0.00159578
Zn       6.65000056       7.40544009      12.74174949  T        2      -0.00000245       0.00000124      -0.00160038
Zn      -0.00000001       0.00000016      16.95771442  T        1      -0.00000126      -0.00000012      -0.01003045
Zn       2.65999963       0.00000017      16.95771456  T        1       0.00000028       0.00000002      -0.01003035
Zn       5.32000036       0.00000008      16.95771462  T        1      -0.00000012       0.00000011      -0.01003116
Zn      -0.00000006       2.46847943      15.29547847  T        1       0.00000101       0.00000117      -0.02684400
Zn       2.65999986       2.46847932      15.29547831  T        1       0.00000177       0.00000202      -0.02684196
Zn       5.32000043       2.46847958      15.29547837  T        1      -0.00000224       0.00000004      -0.02684429
Zn      -0.00000009       4.93695999      16.95771506  T        1       0.00000120       0.00000054      -0.01003346
Zn       2.65999980       4.93696002      16.95771509  T        1       0.00000111      -0.00000081      -0.01003296
Zn       5.32000036       4.93696007      16.95771520  T        1      -0.00000130      -0.00000022      -0.01003328
Zn      -0.00000030       7.40544024      15.29547832  T        1       0.00000093       0.00000038      -0.02684303
Zn       2.65999987       7.40544023      15.29547842  T        1       0.00000007      -0.00000066      -0.02684364
Zn       5.32000028       7.40544015      15.29547852  T        1      -0.00000134       0.00000002      -0.02684504
