10
Lattice="20.0 0.0 0.0 0.0 20.0 0.0 0.0 0.0 20.0" Properties=species:S:1:pos:R:3:forces:R:3 charge=0 spin=0 energy=-52.30099942376193 free_energy=-52.30099942376193 stress="1.3799169963036734e-05 -4.2572017730008395e-06 -3.90904634558389e-08 -4.2572017730008395e-06 -2.9810526221499824e-06 2.485617299791702e-07 -3.90904634558389e-08 2.485617299791702e-07 7.37015360696982e-06" pbc="T T T"
C        8.77838467       9.71747648      10.00004441       0.02427157       0.00803408      -0.00000422
C       10.30747649       9.70742546       9.99986979       0.00986178      -0.00242109      -0.00011816
O        8.23534174      11.05483931      10.00230975      -0.00017994      -0.00258614       0.00253637
O       10.74164582       8.33503583       9.99958763      -0.01675707      -0.01253526      -0.00010961
H        8.40572610       9.18566102      10.89689505       0.00823988      -0.00718098      -0.03024484
H        8.40623004       9.18672943       9.10225010       0.00750011      -0.00603979       0.02962455
H       10.68309991      10.23909782      10.90140559      -0.01107410       0.01602668      -0.00284256
H       10.68230126      10.23905734       9.09798940      -0.01070625       0.01710245       0.00298011
H        8.96636162      11.69773072       9.99842860       0.00457220      -0.00854825      -0.00252073
H       11.71543235       8.32494658      10.00121973      -0.01572806      -0.00185196       0.00069915
