39
Lattice="7.98 0.0 0.0 3.99 6.910882722199821 0.0 0.0 0.0 23.405440000000002" Properties=species:S:1:pos:R:3:move_mask:L:1:tags:I:1:forces:R:3 charge=0 spin=0 energy=-39.68184887170086 free_energy=-39.68184887170086 stress="0.0008999029157596524 -8.683688688226882e-06 -2.7119241730159087e-06 -8.683688688226882e-06 0.0009049366199146298 0.00012379945081655687 -2.7119241730159087e-06 0.00012379945081655687 -0.0015014866100659544" pbc="T T T"
Zn      -0.00000000       1.53575172       8.00000000  F        4       0.00016150       0.00126869      -0.09154541
Zn       2.66000000       1.53575172       8.00000000  F        4      -0.00150390      -0.00069324      -0.09229012
Zn       5.32000000       1.53575172       8.00000000  F        4       0.00131176      -0.00088059      -0.09205293
Zn       1.33000000       3.83937929       8.00000000  F        4      -0.00151333      -0.00130116      -0.09102567
Zn       3.99000000       3.83937929       8.00000000  F        4       0.00029906      -0.00020334      -0.09127396
Zn       6.65000000       3.83937929       8.00000000  F        4       0.00148467      -0.00141497      -0.09095351
Zn       2.66000000       6.14300686       8.00000000  F        4      -0.00076865       0.00131056      -0.08998735
Zn       5.32000000       6.14300686       8.00000000  F        4       0.00092462       0.00082692      -0.09004173
Zn       7.98000000       6.14300686       8.00000000  F        4       0.00004809       0.00007113      -0.09033841
Zn       0.00000000       0.00000000      10.46848000  F        3      -0.00055522      -0.00369513       0.08434696
Zn       2.66000000       0.00000000      10.46848000  F        3       0.00240390       0.00038354       0.09021627
Zn       5.32000000       0.00000000      10.46848000  F        3      -0.00193227      -0.00006909       0.09037016
Zn       1.33000000       2.30362757      10.46848000  F        3       0.00387856       0.00667746       0.08037201
Zn       3.99000000       2.30362757      10.46848000  F        3      -0.00021312       0.00690783       0.08944605
Zn       6.65000000       2.30362757      10.46848000  F        3      -0.00510535       0.00649830       0.08016924
Zn       2.66000000       4.60725515      10.46848000  F        3       0.00243351       0.00376826       0.09347536
Zn       5.32000000       4.60725515      10.46848000  F        3      -0.00265173       0.00383755       0.09272353
Zn       7.98000000       4.60725515      10.46848000  F        3      -0.00024224       0.00786733       0.09363649
Zn       0.00015118       1.55218751      12.96149788  T        2       0.00015381      -0.00448967       0.02926401
Zn       2.66118961       1.55270369      12.97616460  T        2       0.00955692      -0.00366792       0.01534537
Zn       5.31931732       1.55273733      12.97666644  T        2      -0.00954608      -0.00409985       0.01512625
Zn       1.33035474       3.85325915      12.97857038  T        2       0.00104136       0.01661144       0.00954617
Zn       3.99026564       3.85256956      12.98937679  T        2      -0.00012193       0.00469943      -0.00055811
Zn       6.64983758       3.85327466      12.97741316  T        2      -0.00067155       0.01644588       0.00956257
Zn       2.66015422       6.16084059      12.98147138  T        2      -0.00441693      -0.01041295       0.00464804
Zn       5.32008484       6.16074643      12.98045581  T        2       0.00509834      -0.01051293       0.00497993
Zn       7.98024983       6.16136568      12.98609438  T        2      -0.00029443      -0.00771874       0.00628085
Zn       0.00029146       0.03240311      15.50872084  T        1       0.00002092      -0.01622689      -0.00080126
Zn       2.66249598       0.03020785      15.53340443  T        1      -0.00790701      -0.00120879      -0.01521538
Zn       5.31706154       0.03004507      15.53408602  T        1       0.00764682      -0.00105736      -0.01472675
Zn       1.32927939       2.33117680      15.50731731  T        1       0.00780266       0.00168861       0.00139951
Zn       3.98915351       2.33159156      15.58340068  T        1       0.00078570       0.01008026      -0.01748876
Zn       6.64990389       2.33017108      15.50886114  T        1      -0.00695961       0.00213565       0.00163659
Zn       2.65753988       4.63728929      15.51342851  T        1       0.01374603      -0.00847693      -0.00977657
Zn       5.32304029       4.63628247      15.51372256  T        1      -0.01456075      -0.00693880      -0.00959581
Zn       7.97971211       4.63537814      15.52547744  T        1       0.00053889      -0.00396435      -0.01288118
O        3.99024932       3.27837347      19.43994343  T        0       0.00482619       0.04770158       0.01097173
H        4.75496844       3.88078078      19.39295353  T        0      -0.00879309      -0.02747209      -0.00124855
H        3.22161933       3.87647889      19.40550031  T        0       0.00359394      -0.02427567      -0.00171564
