46
Lattice="7.98 0.0 0.0 3.99 6.910882722199821 0.0 0.0 0.0 23.405440000000002" Properties=species:S:1:pos:R:3:move_mask:L:1:tags:I:1:forces:R:3 charge=0 spin=0 energy=-77.94413162444827 free_energy=-77.94413162444827 stress="0.0013231373879637872 3.2031458748956845e-06 -3.2884074133665534e-05 3.2031458748956845e-06 0.0012488211679871572 6.243112255528519e-05 -3.2884074133665534e-05 6.243112255528519e-05 -0.0015251524258248052" pbc="T T T"
Zn      -0.00000000       1.53575172       8.00000000  F        4      -0.00030272      -0.00006660      -0.08587608
Zn       2.66000000       1.53575172       8.00000000  F        4       0.00158612       0.00110528      -0.08812812
Zn       5.32000000       1.53575172       8.00000000  F        4      -0.00137936       0.00095097      -0.08790035
Zn       1.33000000       3.83937929       8.00000000  F        4       0.00145869       0.00128182      -0.08751051
Zn       3.99000000       3.83937929       8.00000000  F        4      -0.00026920      -0.00018544      -0.09048977
Zn       6.65000000       3.83937929       8.00000000  F        4      -0.00183646       0.00061220      -0.08819769
Zn       2.66000000       6.14300686       8.00000000  F        4       0.00010796      -0.00170332      -0.08797198
Zn       5.32000000       6.14300686       8.00000000  F        4      -0.00012621      -0.00130390      -0.08862931
Zn       7.98000000       6.14300686       8.00000000  F        4      -0.00014464       0.00004023      -0.08802092
Zn       0.00000000       0.00000000      10.46848000  F        3       0.00120940       0.00836701       0.09720569
Zn       2.66000000       0.00000000      10.46848000  F        3      -0.00062835       0.00118807       0.09593805
Zn       5.32000000       0.00000000      10.46848000  F        3      -0.00358429       0.00270677       0.09852143
Zn       1.33000000       2.30362757      10.46848000  F        3      -0.00580888      -0.00131527       0.10191539
Zn       3.99000000       2.30362757      10.46848000  F        3      -0.00019518      -0.00518787       0.08701857
Zn       6.65000000       2.30362757      10.46848000  F        3       0.00389134      -0.00055136       0.10114058
Zn       2.66000000       4.60725515      10.46848000  F        3      -0.00768682       0.00415123       0.08579005
Zn       5.32000000       4.60725515      10.46848000  F        3       0.00593105       0.00656828       0.08530203
Zn       7.98000000       4.60725515      10.46848000  F        3      -0.00166842       0.00323407       0.09703866
Zn      -0.00445077       1.54731133      13.01415555  T        2       0.00090279       0.00240721      -0.03365525
Zn       2.65556231       1.54912986      12.99344402  T        2      -0.00296570      -0.00770021      -0.01277822
Zn       5.31700907       1.54874737      12.99490592  T        2       0.00029208      -0.00353638      -0.01343604
Zn       1.32379821       3.85033911      12.99489374  T        2       0.00316045       0.00139794      -0.01933013
Zn       3.98583897       3.85154053      12.96645763  T        2       0.00329369       0.00072882       0.01428545
Zn       6.64434634       3.85132531      12.99393759  T        2       0.00121163       0.00068326      -0.01885780
Zn       2.65775039       6.15513739      12.98683542  T        2      -0.00794227       0.00027360      -0.01024620
Zn       5.31574176       6.15606824      12.99492028  T        2       0.00556592      -0.00324157      -0.01788409
Zn       7.97521913       6.15663486      12.99926484  T        2      -0.00074267      -0.00164595      -0.02337658
Zn      -0.00742054       0.01211076      15.53540549  T        1       0.00243533       0.01492195      -0.00330927
Zn       2.65213846       0.01816065      15.54320062  T        1       0.00225830      -0.00495359      -0.00184519
Zn       5.31234979       0.01704207      15.52733203  T        1      -0.00073035       0.00080363       0.00529192
Zn       1.32253285       2.31831441      15.54298138  T        1      -0.00302292       0.00419753      -0.00578661
Zn       3.98227957       2.32591660      15.51152888  T        1       0.00243666      -0.01934258       0.00929922
Zn       6.64127543       2.32029765      15.54652200  T        1       0.00360516       0.00070637      -0.00854898
Zn       2.65622382       4.62225550      15.50894793  T        1      -0.01545298       0.00317128       0.00943440
Zn       5.31062481       4.62480619      15.53270768  T        1       0.01259355      -0.00361220       0.02799453
Zn       7.97159137       4.62373576      15.51653718  T        1      -0.00000533      -0.00336839       0.02259455
C        3.85556589       3.69485903      19.94495649  T        0      -0.00453202      -0.03646100      -0.02311617
C        3.81914188       3.75521364      21.47686660  T        0      -0.00089071      -0.00054013      -0.04369055
O        4.37301344       4.90855123      19.36669493  T        0      -0.03127575      -0.01654719       0.03133695
O        3.34272411       2.47435398      21.93888705  T        0      -0.01081216      -0.00372572       0.02263481
H        2.84648285       3.45196095      19.55440862  T        0       0.02989817       0.01910236       0.01732111
H        4.53826666       2.88976854      19.62222959  T        0       0.00444782      -0.01484977       0.03078271
H        3.14552640       4.57348734      21.80893208  T        0      -0.01223826       0.01640833      -0.01951782
H        4.83512424       3.96806193      21.86478593  T        0       0.02937588       0.02245297      -0.01898147
H        3.65253576       5.56319701      19.33960075  T        0       0.00661347       0.02986366       0.02518461
H        3.31299961       2.49904346      22.91137177  T        0      -0.00803387      -0.01748621       0.00105434
