45
Lattice="7.98 0.0 0.0 3.99 6.910882722199821 0.0 0.0 0.0 23.405440000000002" Properties=species:S:1:pos:R:3:move_mask:L:1:tags:I:1:forces:R:3 charge=0 spin=0 energy=-73.74868420976468 free_energy=-73.74868420976468 stress="0.002563552728301009 -1.5618515963992894e-05 0.00022768229481787535 -1.5618515963992894e-05 0.0025053871573742733 0.00014807965513645603 0.00022768229481787535 0.00014807965513645603 -0.0013607303470106944" pbc="T T T"
Zn      -0.00000000       1.53575172       8.00000000  F        4      -0.00334340      -0.00112030      -0.09420534
Zn       2.66000000       1.53575172       8.00000000  F        4       0.00084984      -0.00543530      -0.09284025
Zn       5.32000000       1.53575172       8.00000000  F        4       0.00208030      -0.00996451      -0.10246617
Zn       1.33000000       3.83937929       8.00000000  F        4      -0.00221796       0.00346759      -0.09336922
Zn       3.99000000       3.83937929       8.00000000  F        4       0.00125878       0.00072710      -0.10560700
Zn       6.65000000       3.83937929       8.00000000  F        4       0.00340246      -0.00062871      -0.10768165
Zn       2.66000000       6.14300686       8.00000000  F        4      -0.00779474       0.00587754      -0.10278478
Zn       5.32000000       6.14300686       8.00000000  F        4      -0.00017738       0.00329358      -0.10776827
Zn       7.98000000       6.14300686       8.00000000  F        4       0.00672945       0.00495030      -0.09941452
Zn       0.00000000       0.00000000      10.46848000  F        3      -0.00234084      -0.00214597       0.09380764
Zn       2.66000000       0.00000000      10.46848000  F        3       0.00750180       0.00161879       0.09479776
Zn       5.32000000       0.00000000      10.46848000  F        3      -0.00396817      -0.00260288       0.12012691
Zn       1.33000000       2.30362757      10.46848000  F        3       0.00400614       0.00414087       0.10438585
Zn       3.99000000       2.30362757      10.46848000  F        3       0.00244816       0.01379852       0.09546239
Zn       6.65000000       2.30362757      10.46848000  F        3      -0.00374800      -0.00210069       0.09137523
Zn       2.66000000       4.60725515      10.46848000  F        3       0.01105604      -0.00342673       0.09325336
Zn       5.32000000       4.60725515      10.46848000  F        3      -0.01095558      -0.00535913       0.13312696
Zn       7.98000000       4.60725515      10.46848000  F        3       0.00481060       0.00421519       0.09769612
Zn       0.00666034       1.53786488      12.97557893  T        2       0.00452012       0.00337569      -0.00021513
Zn       2.66668812       1.54184619      12.97786112  T        2       0.00463375      -0.00130358       0.00149353
Zn       5.32470031       1.54717887      13.00231816  T        2       0.00610639      -0.00668307       0.00064111
Zn       1.33865230       3.84065854      12.98007574  T        2       0.00141484       0.00363341      -0.00067907
Zn       4.00999855       3.85160115      13.04969286  T        2      -0.00190734      -0.00296120       0.00908606
Zn       6.64187998       3.84922714      12.99301054  T        2       0.01167791      -0.00215011       0.01238717
Zn       2.67259297       6.14129808      13.00090419  T        2      -0.00358304       0.00605744       0.00183533
Zn       5.32708034       6.12985559      12.99437432  T        2       0.00252316       0.01017679       0.01076467
Zn       7.98144910       6.14321494      13.01105184  T        2       0.01092590       0.00617150      -0.00031134
Zn       0.04409626      -0.01385835      15.51895361  T        1       0.00459083      -0.00082535      -0.00328120
Zn       2.67870638      -0.00217256      15.51532686  T        1      -0.00627619      -0.00042037       0.00575733
Zn       5.35404919       0.01826439      15.53181267  T        1      -0.00246800      -0.00112270       0.01373281
Zn       1.35924399       2.31863445      15.51465893  T        1       0.00339656       0.00454638       0.00119811
Zn       4.03493729       2.35042318      15.56828868  T        1       0.00036419       0.00448225      -0.00219231
Zn       6.66292347       2.34839740      15.51243124  T        1      -0.00294757       0.00479792       0.00239138
Zn       2.72363678       4.61885699      15.56926401  T        1       0.00200602       0.00078485      -0.00300088
Zn       5.43516752       4.68078591      16.45224999  T        1       0.00817803       0.00997527       0.00626557
Zn       7.98670564       4.62336106      15.51071895  T        1      -0.00569871      -0.00427293       0.00658601
C        5.20274224       4.55072810      19.54122713  T        0      -0.00272452       0.00032854      -0.00390380
C        6.64333122       5.05766951      19.70939765  T        0      -0.00334948      -0.00318758      -0.00675107
O        4.81853210       4.29650833      18.20484160  T        0      -0.02559550      -0.04048917       0.00188935
O        6.91522309       5.13605945      21.12311364  T        0      -0.01419967      -0.00108384       0.01008711
H        4.51374452       5.29178753      20.00614377  T        0       0.01607506       0.01779217      -0.02070822
H        5.10195444       3.61342454      20.13288967  T        0       0.01683710       0.00707427      -0.00714584
H        6.75490940       6.05593920      19.23485328  T        0      -0.01932427      -0.01161943      -0.03929883
H        7.34465307       4.35379158      19.21172590  T        0      -0.01002767      -0.00934767      -0.01459551
H        7.79081507       5.54437113      21.24235055  T        0      -0.00474559      -0.00303464       0.00007299
