47
Lattice="7.98 0.0 0.0 3.99 6.910882722199821 0.0 0.0 0.0 23.405440000000002" Properties=species:S:1:pos:R:3:move_mask:L:1:tags:I:1:forces:R:3 charge=0 spin=0 energy=-77.995564746663 free_energy=-77.995564746663 stress="0.0012692282671012479 3.493922488815277e-05 4.254881085855597e-05 3.493922488815277e-05 0.0012164783168120892 0.0001380423630685052 4.254881085855597e-05 0.0001380423630685052 -0.0018766243758599561" pbc="T T T"
Zn      -0.00000000       1.53575172       8.00000000  F        4      -0.00234658       0.00034470      -0.09381477
Zn       2.66000000       1.53575172       8.00000000  F        4       0.00128582       0.00255901      -0.09196075
Zn       5.32000000       1.53575172       8.00000000  F        4       0.00171503      -0.00143537      -0.09423371
Zn       1.33000000       3.83937929       8.00000000  F        4       0.00219001       0.00148648      -0.09374080
Zn       3.99000000       3.83937929       8.00000000  F        4      -0.00286699      -0.00149054      -0.09478881
Zn       6.65000000       3.83937929       8.00000000  F        4       0.00104902      -0.00203548      -0.09550615
Zn       2.66000000       6.14300686       8.00000000  F        4      -0.00183447      -0.00007161      -0.09437697
Zn       5.32000000       6.14300686       8.00000000  F        4      -0.00099637       0.00139336      -0.09334066
Zn       7.98000000       6.14300686       8.00000000  F        4       0.00302537       0.00034476      -0.09295801
Zn       0.00000000       0.00000000      10.46848000  F        3       0.00949628      -0.00417228       0.07385311
Zn       2.66000000       0.00000000      10.46848000  F        3      -0.00117312      -0.00413500       0.08255585
Zn       5.32000000       0.00000000      10.46848000  F        3      -0.00459509       0.00336593       0.08458446
Zn       1.33000000       2.30362757      10.46848000  F        3       0.00354315       0.00243641       0.07978667
Zn       3.99000000       2.30362757      10.46848000  F        3       0.00503271      -0.00137581       0.07102784
Zn       6.65000000       2.30362757      10.46848000  F        3      -0.00167854       0.00340205       0.09047318
Zn       2.66000000       4.60725515      10.46848000  F        3       0.00109096       0.00229870       0.06541381
Zn       5.32000000       4.60725515      10.46848000  F        3       0.00636022       0.01114079       0.08405893
Zn       7.98000000       4.60725515      10.46848000  F        3       0.00082726       0.00730528       0.09646428
Zn       0.00908853       1.54949309      12.97295657  T        2      -0.00293885      -0.00473575       0.01445153
Zn       2.66832937       1.54648082      12.96915237  T        2      -0.00766312      -0.00837047       0.01644786
Zn       5.33057480       1.55133492      12.98441908  T        2       0.00352787      -0.01234999       0.01531005
Zn       1.34163365       3.85086876      12.98176137  T        2      -0.02006987      -0.00742094       0.00008523
Zn       4.00542038       3.85165876      12.97149723  T        2      -0.00451675      -0.00082809       0.03917930
Zn       6.65648423       3.85591546      12.98977290  T        2       0.01292874      -0.00959649       0.00641327
Zn       2.67213774       6.15291745      12.97263722  T        2      -0.01353459       0.01714618       0.01390662
Zn       5.32869668       6.14528223      13.00430703  T        2       0.00473774       0.01912623       0.00810007
Zn       7.98908128       6.15253948      12.99077117  T        2      -0.00274261      -0.00095041       0.00450901
Zn       0.00507497       0.02209566      15.51409802  T        1      -0.00381073       0.01603358      -0.00438730
Zn       2.66759021       0.01640800      15.51895443  T        1       0.00715122       0.00435040      -0.00202760
Zn       5.33057541       0.01711464      15.52172882  T        1      -0.00968019       0.00038034       0.00353157
Zn       1.34027663       2.32253680      15.52483282  T        1      -0.01523226      -0.00388311      -0.00660105
Zn       3.99941979       2.31895206      15.50378120  T        1      -0.00573597       0.01438922       0.01241588
Zn       6.65371464       2.32601191      15.54191315  T        1       0.01129232      -0.00891221      -0.00921089
Zn       2.66297022       4.62718665      15.48412246  T        1       0.00237696      -0.01006428       0.01898640
Zn       5.32328491       4.62857259      15.69269682  T        1      -0.00549598      -0.01113649      -0.00336439
Zn       7.98409731       4.62389806      15.56229985  T        1       0.00098203       0.00572859      -0.02427798
Zn       4.48327393       5.22630345      18.49512536  T        0       0.03674559      -0.01356612       0.00116506
C        3.60462129       3.01196472      22.08999498  T        0       0.02120683      -0.01623318       0.01538869
C        3.59615034       2.69109580      23.58811603  T        0      -0.03601928      -0.01690746       0.00834710
O        3.83209665       4.41577379      21.85643093  T        0      -0.01175515      -0.01754161      -0.02213006
O        3.37377675       1.27068175      23.72982692  T        0       0.00670300       0.03147277       0.02361638
H        2.61827893       2.77828588      21.65152038  T        0       0.03056246       0.01581453       0.01993085
H        4.36108822       2.38864894      21.57576168  T        0       0.00306056      -0.03096429      -0.01867434
H        2.79063692       3.27443773      24.07601078  T        0       0.00289012       0.01235901       0.03126740
H        4.56527264       2.98867420      24.04727044  T        0      -0.02374936      -0.01376082      -0.04178422
H        4.78594652       4.58660888      21.95920334  T        0      -0.00690563       0.04197500       0.02065131
H        3.22128497       1.08660902      24.67374397  T        0       0.00556022      -0.01291561      -0.02474335
