36
Lattice="7.98 0.0 0.0 3.99 6.910882722199821 0.0 0.0 0.0 23.405440000000002" Properties=species:S:1:pos:R:3:move_mask:L:1:tags:I:1:forces:R:3 charge=0 spin=0 energy=-25.475382354712192 free_energy=-25.475382354712192 stress="0.00019389449731248276 2.078886566486449e-10 -2.0820128528519178e-09 2.078886566486449e-10 0.0001939030852472792 -7.648502750556079e-11 -2.0820128528519178e-09 -7.648502750556079e-11 -0.0029685480085133976" pbc="T T T"
Zn      -0.00000000       1.53575172       8.00000000  F        4       0.00000089      -0.00000097      -0.08343925
Zn       2.66000000       1.53575172       8.00000000  F        4      -0.00000054      -0.00000138      -0.08343901
Zn       5.32000000       1.53575172       8.00000000  F        4      -0.00000045      -0.00000117      -0.08343950
Zn       1.33000000       3.83937929       8.00000000  F        4      -0.00000203       0.00000038      -0.08343939
Zn       3.99000000       3.83937929       8.00000000  F        4       0.00000158      -0.00000030      -0.08343946
Zn       6.65000000       3.83937929       8.00000000  F        4       0.00000034       0.00000012      -0.08343888
Zn       2.66000000       6.14300686       8.00000000  F        4      -0.00000120       0.00000128      -0.08343872
Zn       5.32000000       6.14300686       8.00000000  F        4      -0.00000016       0.00000109      -0.08343928
Zn       7.98000000       6.14300686       8.00000000  F        4       0.00000117       0.00000073      -0.08343917
Zn       0.00000000       0.00000000      10.46848000  F        3      -0.00000014      -0.00000158       0.02045282
Zn       2.66000000       0.00000000      10.46848000  F        3      -0.00000011      -0.00000143       0.02045244
Zn       5.32000000       0.00000000      10.46848000  F        3      -0.00000028      -0.00000091       0.02045197
Zn       1.33000000       2.30362757      10.46848000  F        3       0.00000044       0.00000033       0.02045228
Zn       3.99000000       2.30362757      10.46848000  F        3       0.00000058       0.00000017       0.02045324
Zn       6.65000000       2.30362757      10.46848000  F        3      -0.00000039      -0.00000016       0.02045272
Zn       2.66000000       4.60725515      10.46848000  F        3      -0.00000018       0.00000124       0.02045280
Zn       5.32000000       4.60725515      10.46848000  F        3      -0.00000068       0.00000121       0.02045308
Zn       7.98000000       4.60725515      10.46848000  F        3       0.00000072       0.00000102       0.02045297
Zn       0.00000030       1.53575138      12.92454062  T        2      -0.00000342       0.00000186       0.03703963
Zn       2.65999999       1.53575119      12.92454057  T        2       0.00000051       0.00000193       0.03703993
Zn       5.31999977       1.53575139      12.92454064  T        2       0.00000233       0.00000265       0.03703921
Zn       1.32999927       3.83937938      12.92454056  T        2       0.00000392      -0.00000142       0.03703934
Zn       3.99000055       3.83937916      12.92454053  T        2      -0.00000380       0.00000140       0.03704028
Zn       6.65000012       3.83937929      12.92454056  T        2      -0.00000075      -0.00000052       0.03704108
Zn       2.65999965       6.14300721      12.92454041  T        2       0.00000412      -0.00000261       0.03704006
Zn       5.31999990       6.14300709      12.92454050  T        2       0.00000165      -0.00000264       0.03703970
Zn       7.98000031       6.14300703      12.92454049  T        2      -0.00000452       0.00000012       0.03703970
Zn       0.00000047       0.00000052      15.43290477  T        1      -0.00000385      -0.00000367       0.02594683
Zn       2.66000015       0.00000050      15.43290478  T        1      -0.00000057      -0.00000386       0.02594648
Zn       5.31999928       0.00000043      15.43290469  T        1       0.00000517      -0.00000284       0.02594735
Zn       1.33000007       2.30362726      15.43290487  T        1       0.00000031       0.00000260       0.02594718
Zn       3.99000037       2.30362690      15.43290480  T        1      -0.00000208       0.00000485       0.02594681
Zn       6.64999994       2.30362726      15.43290482  T        1       0.00000009       0.00000302       0.02594631
Zn       2.65999961       4.60725513      15.43290470  T        1       0.00000358       0.00000158       0.02594601
Zn       5.31999988       4.60725530      15.43290476  T        1       0.00000173      -0.00000083       0.02594590
Zn       7.98000034       4.60725535      15.43290476  T        1      -0.00000403      -0.00000134       0.02594656
