35
Lattice="7.98 0.0 0.0 3.99 6.910882722199821 0.0 0.0 0.0 23.405440000000002" Properties=species:S:1:pos:R:3:move_mask:L:1:tags:I:1:forces:R:3 charge=0 spin=0 energy=-24.089088706773527 free_energy=-24.089088706773527 stress="0.00021549103627568103 -7.846026834378557e-10 -1.1494000429415907e-09 -7.846026834378557e-10 0.0002154975543747682 9.885396626356763e-10 -1.1494000429415907e-09 9.885396626356763e-10 -0.002425844232926163" pbc="T T T"
Zn      -0.00000000       1.53575172       8.00000000  F        4       0.00662838       0.00102657      -0.12014107
Zn       2.66000000       1.53575172       8.00000000  F        4      -0.00420356       0.00522541      -0.12014222
Zn       5.32000000       1.53575172       8.00000000  F        4       0.00001066      -0.00665259      -0.11490987
Zn       1.33000000       3.83937929       8.00000000  F        4      -0.00242626      -0.00625306      -0.12014250
Zn       3.99000000       3.83937929       8.00000000  F        4      -0.00134342      -0.00239104      -0.12571488
Zn       6.65000000       3.83937929       8.00000000  F        4       0.00274302       0.00003087      -0.12571435
Zn       2.66000000       6.14300686       8.00000000  F        4      -0.00576677       0.00331769      -0.11490981
Zn       5.32000000       6.14300686       8.00000000  F        4      -0.00139781       0.00236076      -0.12571466
Zn       7.98000000       6.14300686       8.00000000  F        4       0.00575551       0.00333591      -0.11491005
Zn       0.00000000       0.00000000      10.46848000  F        3      -0.00390968      -0.02545010       0.09759656
Zn       2.66000000       0.00000000      10.46848000  F        3       0.02073721      -0.02365638       0.10103785
Zn       5.32000000       0.00000000      10.46848000  F        3       0.00000001      -0.00000070       0.12389638
Zn       1.33000000       2.30362757      10.46848000  F        3       0.00000010      -0.00000039       0.07692963
Zn       3.99000000       2.30362757      10.46848000  F        3       0.02399331       0.00933928       0.09759415
Zn       6.65000000       2.30362757      10.46848000  F        3      -0.03085442      -0.00613115       0.10103665
Zn       2.66000000       4.60725515      10.46848000  F        3       0.01011780       0.02978790       0.10103551
Zn       5.32000000       4.60725515      10.46848000  F        3      -0.00000090       0.00000009       0.17698427
Zn       7.98000000       4.60725515      10.46848000  F        3      -0.02008393       0.01611039       0.09759362
Zn       0.00358019       1.53381978      12.95314466  T        2      -0.02105665      -0.00956401       0.01956547
Zn       2.65988359       1.53981778      12.95314458  T        2       0.01880516      -0.01345403       0.01956606
Zn       5.31987661       1.52959780      13.00707940  T        2      -0.00064311      -0.00164156      -0.00288483
Zn       1.32653710       3.83724474      12.95314452  T        2       0.00224698       0.02301716       0.01956878
Zn       3.96656517       3.83160683      12.99248526  T        2      -0.03891552      -0.03056101      -0.00585918
Zn       6.66844806       3.82297065      12.99248545  T        2       0.04592475      -0.01842359      -0.00586073
Zn       2.65473221       6.14618973      13.00707865  T        2      -0.00109972       0.00138284      -0.00288357
Zn       5.32498598       6.16718655      12.99248443  T        2      -0.00700666       0.04898840      -0.00586151
Zn       7.98539053       6.14597816      13.00707912  T        2       0.00174603       0.00025702      -0.00288550
Zn       0.02636512       0.00615797      15.45984919  T        1      -0.01784233      -0.00685201       0.01438607
Zn       2.67325794      -0.00500913      15.46801613  T        1      -0.01598676       0.00072733       0.01100390
Zn       5.31999936       0.00000063      15.51983455  T        1       0.00000730      -0.00000348      -0.00244468
Zn       1.32999967       2.30362762      15.45252618  T        1       0.00000251       0.00000113       0.00241102
Zn       3.97148544       2.32338082      15.45984995  T        1       0.01484917      -0.01202250       0.01438591
Zn       6.63903367       2.29465119      15.46801614  T        1       0.00861834       0.01347727       0.01100264
Zn       2.65770965       4.62124044      15.46801646  T        1       0.00735791      -0.01419932       0.01099940
Zn       7.97215026       4.58134454      15.45984950  T        1       0.00299334       0.01887098       0.01438559
