46
Lattice="7.98 0.0 0.0 3.99 6.910882722199821 0.0 0.0 0.0 23.405440000000002" Properties=species:S:1:pos:R:3:move_mask:L:1:tags:I:1:forces:R:3 charge=0 spin=0 energy=-77.88739993845752 free_energy=-77.88739993845752 stress="0.0002521631512239765 4.861956519974543e-05 -4.1489505786057205e-06 4.861956519974543e-05 0.00024115293603382858 3.3354263943089715e-05 -4.1489505786057205e-06 3.3354263943089715e-05 -0.0043562227184863155" pbc="T T T"
Zn      -0.00000000       1.53575172       8.00000000  F        4      -0.00028634      -0.00057320      -0.08765708
Zn       2.66000000       1.53575172       8.00000000  F        4       0.00024345      -0.00002219      -0.08737045
Zn       5.32000000       1.53575172       8.00000000  F        4      -0.00003731      -0.00054028      -0.08759264
Zn       1.33000000       3.83937929       8.00000000  F        4       0.00046324       0.00052448      -0.08783635
Zn       3.99000000       3.83937929       8.00000000  F        4      -0.00058046      -0.00008457      -0.08794371
Zn       6.65000000       3.83937929       8.00000000  F        4      -0.00009842       0.00011695      -0.08787839
Zn       2.66000000       6.14300686       8.00000000  F        4      -0.00042438      -0.00001469      -0.08792721
Zn       5.32000000       6.14300686       8.00000000  F        4      -0.00007604       0.00020411      -0.08743296
Zn       7.98000000       6.14300686       8.00000000  F        4       0.00053431       0.00046781      -0.08736211
Zn       0.00000000       0.00000000      10.46848000  F        3       0.00026963      -0.00020574       0.02214052
Zn       2.66000000       0.00000000      10.46848000  F        3       0.00015586       0.00005422       0.02101008
Zn       5.32000000       0.00000000      10.46848000  F        3      -0.00035949      -0.00020398       0.02070530
Zn       1.33000000       2.30362757      10.46848000  F        3       0.00043767       0.00028094       0.02036750
Zn       3.99000000       2.30362757      10.46848000  F        3      -0.00054347      -0.00035456       0.02122834
Zn       6.65000000       2.30362757      10.46848000  F        3      -0.00000604      -0.00031322       0.02439445
Zn       2.66000000       4.60725515      10.46848000  F        3       0.00011962      -0.00027125       0.02004446
Zn       5.32000000       4.60725515      10.46848000  F        3      -0.00014870       0.00046970       0.02510503
Zn       7.98000000       4.60725515      10.46848000  F        3       0.00017186       0.00077444       0.02149053
Zn      -0.00000000       1.53575172      12.93696000  F        2       0.00002176      -0.00036253      -0.02807502
Zn       2.66000000       1.53575172      12.93696000  F        2      -0.00077101       0.00111977      -0.03161583
Zn       5.32000000       1.53575172      12.93696000  F        2       0.00102882       0.00080680      -0.02836690
Zn       1.33000000       3.83937929      12.93696000  F        2       0.00045680      -0.00007451      -0.03130645
Zn       3.99000000       3.83937929      12.93696000  F        2      -0.00002806       0.00100154      -0.02851687
Zn       6.65000000       3.83937929      12.93696000  F        2      -0.00022729       0.00008618      -0.02714649
Zn       2.66000000       6.14300686      12.93696000  F        2       0.00074612      -0.00091082      -0.02718523
Zn       5.32000000       6.14300686      12.93696000  F        2      -0.00020219      -0.00053553      -0.02817807
Zn       7.98000000       6.14300686      12.93696000  F        2      -0.00010462      -0.00171774      -0.02900244
Zn       0.00000000       0.00000000      15.40544000  F        1      -0.00006892       0.00015267       0.09076618
Zn       2.66000000       0.00000000      15.40544000  F        1       0.00170163       0.00495490       0.09540262
Zn       5.32000000       0.00000000      15.40544000  F        1      -0.00153078      -0.00449807       0.09503902
Zn       1.33000000       2.30362757      15.40544000  F        1       0.00212133       0.00115783       0.10563242
Zn       3.99000000       2.30362757      15.40544000  F        1      -0.00689913      -0.00209179       0.09327991
Zn       6.65000000       2.30362757      15.40544000  F        1       0.00076479      -0.00132538       0.07549442
Zn       2.66000000       4.60725515      15.40544000  F        1      -0.00202860      -0.00166608       0.10187051
Zn       5.32000000       4.60725515      15.40544000  F        1      -0.00180963       0.00150292       0.07746972
Zn       7.98000000       4.60725515      15.40544000  F        1       0.00708459       0.00246951       0.09292918
C        5.34083206       3.53887324      20.21369982  T        0      -0.02775173       0.03097703      -0.00326589
C        6.86713511       3.65559845      20.08747224  T        0      -0.03950430      -0.00266553      -0.00100891
O        4.68988157       4.81949420      20.27465415  T        0       0.01695463       0.01527246       0.03646225
O        7.50280347       2.37014515      19.97375664  T        0      -0.01044408      -0.02064619       0.02343066
H        5.06870128       3.02446168      21.15055137  T        0       0.02444494      -0.02168491      -0.00723240
H        4.94374406       2.92803553      19.36915617  T        0       0.01881121       0.02849602       0.00670815
H        7.29262332       4.13026878      20.98770986  T        0       0.00375938      -0.01672129      -0.00905570
H        7.12003155       4.30237079      19.21588138  T        0      -0.01640603      -0.01069395      -0.00272704
H        4.97646805       5.34919289      19.50767483  T        0       0.00025418      -0.01310359      -0.01655478
H        7.04350256       1.87057568      19.27248484  T        0       0.02979125       0.01039119      -0.00273211
