46
Lattice="7.98 0.0 0.0 3.99 6.910882722199821 0.0 0.0 0.0 23.405440000000002" Properties=species:S:1:pos:R:3:move_mask:L:1:tags:I:1:forces:R:3 charge=0 spin=0 energy=-77.95511793820395 free_energy=-77.95511793820395 stress="0.0013653798360914059 9.48082807910978e-06 -2.2364581004756226e-05 9.48082807910978e-06 0.0013763387569283485 0.00010607461261009099 -2.2364581004756226e-05 0.00010607461261009099 -0.001549108814121657" pbc="T T T"
Zn      -0.00000000       1.53575172       8.00000000  F        4      -0.00061924       0.00034573      -0.08658146
Zn       2.66000000       1.53575172       8.00000000  F        4       0.00078693       0.00043624      -0.08705970
Zn       5.32000000       1.53575172       8.00000000  F        4      -0.00013055       0.00070401      -0.08784442
Zn       1.33000000       3.83937929       8.00000000  F        4       0.00006745       0.00048137      -0.08651071
Zn       3.99000000       3.83937929       8.00000000  F        4       0.00037803      -0.00004133      -0.08919466
Zn       6.65000000       3.83937929       8.00000000  F        4      -0.00054607      -0.00012022      -0.08848020
Zn       2.66000000       6.14300686       8.00000000  F        4      -0.00013359      -0.00009884      -0.08739170
Zn       5.32000000       6.14300686       8.00000000  F        4       0.00014775      -0.00064464      -0.08805473
Zn       7.98000000       6.14300686       8.00000000  F        4       0.00013239       0.00004223      -0.08719248
Zn       0.00000000       0.00000000      10.46848000  F        3       0.00084878       0.00204732       0.08019152
Zn       2.66000000       0.00000000      10.46848000  F        3       0.00098998       0.00100879       0.08224132
Zn       5.32000000       0.00000000      10.46848000  F        3       0.00112450       0.00212929       0.08499134
Zn       1.33000000       2.30362757      10.46848000  F        3      -0.00018690       0.00410148       0.08134650
Zn       3.99000000       2.30362757      10.46848000  F        3       0.00226072       0.00145862       0.08017423
Zn       6.65000000       2.30362757      10.46848000  F        3       0.00120413       0.00014330       0.08184700
Zn       2.66000000       4.60725515      10.46848000  F        3      -0.00189525       0.00473047       0.08095361
Zn       5.32000000       4.60725515      10.46848000  F        3       0.00071740       0.00627479       0.07897202
Zn       7.98000000       4.60725515      10.46848000  F        3       0.00382908       0.00465567       0.08388548
Zn       0.00473428       1.55125844      12.98151700  T        2      -0.00329637      -0.00453255       0.00660816
Zn       2.66546317       1.55204476      12.97712573  T        2      -0.00059227      -0.00528172       0.01649644
Zn       5.32403115       1.55281576      12.98260576  T        2       0.00012916      -0.00307454       0.01211498
Zn       1.33500606       3.85475389      12.98639492  T        2      -0.00029829       0.00125681       0.00161940
Zn       3.99451464       3.85393017      12.97441239  T        2       0.00468533       0.00216571       0.01976145
Zn       6.65464017       3.85536399      12.97543425  T        2      -0.00590138      -0.00118905       0.01681909
Zn       2.66532280       6.15909012      12.98420063  T        2      -0.00023191      -0.00316530       0.00202775
Zn       5.32341978       6.15806631      12.98389027  T        2       0.00142908      -0.00362093       0.00394656
Zn       7.98441190       6.15835736      12.98528746  T        2      -0.00166070      -0.00060641       0.00166265
Zn       0.00717220       0.01871139      15.53665013  T        1      -0.00564317       0.00728977      -0.00154131
Zn       2.66469342       0.01990510      15.52308540  T        1       0.00302886       0.00540387       0.00165711
Zn       5.32556940       0.01974041      15.52203570  T        1      -0.00064435       0.00272317       0.00527880
Zn       1.33458780       2.32384357      15.51879251  T        1       0.00091694       0.00144145       0.00470290
Zn       3.99539144       2.32575863      15.55077217  T        1      -0.00458803      -0.00743162      -0.02719821
Zn       6.65268967       2.32508303      15.52754877  T        1       0.00685177      -0.00768175      -0.00540658
Zn       2.66968326       4.62836191      15.52313076  T        1      -0.01426241      -0.00354676       0.00354461
Zn       5.32523068       4.62816191      15.54276903  T        1      -0.00136741      -0.00138223       0.00249568
Zn       7.98297034       4.62783108      15.52532975  T        1       0.01010409      -0.00427752      -0.00234871
C        5.01270681       3.74281864      20.21683555  T        0      -0.01817662       0.02532399       0.02423176
C        5.00922864       3.74511295      21.74857097  T        0       0.01105980      -0.00127250       0.00541888
O        5.15279072       5.07354131      19.68656584  T        0       0.02567559       0.01512883      -0.01866656
O        4.73273031       2.39837083      22.18479132  T        0      -0.00449009      -0.02317694      -0.00496412
H        4.03939875       3.37389118      19.85107316  T        0       0.00770632      -0.00501317      -0.02247701
H        5.80188454       3.06195607      19.83706774  T        0      -0.02153886       0.02005388       0.00386038
H        4.23948035       4.45664332      22.11117152  T        0       0.00435664      -0.01882921      -0.01383927
H        5.99932938       4.08371060      22.12329489  T        0       0.00903771       0.02628857       0.01848486
H        6.05367545       5.39388445      19.87972080  T        0      -0.01730893      -0.04162016      -0.00207167
H        4.68207308       2.39900451      23.15671595  T        0       0.00604395       0.00097213       0.00148908
