46
Lattice="7.98 0.0 0.0 3.99 6.910882722199821 0.0 0.0 0.0 23.405440000000002" Properties=species:S:1:pos:R:3:move_mask:L:1:tags:I:1:forces:R:3 charge=0 spin=0 energy=-77.94139319118341 free_energy=-77.94139319118341 stress="0.0014031009823313883 -2.451845908363411e-05 5.9486538017051076e-05 -2.451845908363411e-05 0.001331717691088791 -0.00027988918229245437 5.9486538017051076e-05 -0.00027988918229245437 -0.0014531614072004271" pbc="T T T"
Zn      -0.00000000       1.53575172       8.00000000  F        4       0.00080580      -0.00034404      -0.08765329
Zn       2.66000000       1.53575172       8.00000000  F        4      -0.00071948      -0.00001324      -0.08767824
Zn       5.32000000       1.53575172       8.00000000  F        4      -0.00003861       0.00017234      -0.08674618
Zn       1.33000000       3.83937929       8.00000000  F        4       0.00013282       0.00028552      -0.08858265
Zn       3.99000000       3.83937929       8.00000000  F        4      -0.00024903       0.00080667      -0.08978102
Zn       6.65000000       3.83937929       8.00000000  F        4       0.00018618       0.00078196      -0.08832511
Zn       2.66000000       6.14300686       8.00000000  F        4       0.00093047      -0.00133108      -0.08820980
Zn       5.32000000       6.14300686       8.00000000  F        4      -0.00023434      -0.00069995      -0.08933934
Zn       7.98000000       6.14300686       8.00000000  F        4      -0.00025412      -0.00160375      -0.08798843
Zn       0.00000000       0.00000000      10.46848000  F        3      -0.00092918      -0.00981687       0.09218844
Zn       2.66000000       0.00000000      10.46848000  F        3       0.00064464      -0.00427584       0.09609648
Zn       5.32000000       0.00000000      10.46848000  F        3       0.00200475      -0.00464240       0.09979244
Zn       1.33000000       2.30362757      10.46848000  F        3       0.00454253      -0.01232773       0.09191161
Zn       3.99000000       2.30362757      10.46848000  F        3       0.00164652      -0.01559216       0.09527192
Zn       6.65000000       2.30362757      10.46848000  F        3      -0.00395657      -0.00866874       0.09716029
Zn       2.66000000       4.60725515      10.46848000  F        3       0.00014655      -0.00414726       0.08903560
Zn       5.32000000       4.60725515      10.46848000  F        3       0.00438570      -0.00853046       0.08837686
Zn       7.98000000       4.60725515      10.46848000  F        3      -0.00292699      -0.00876114       0.09119316
Zn       0.00535154       1.49597890      12.98689684  T        2       0.00153354      -0.00240241       0.00327403
Zn       2.66611775       1.49378946      13.00236056  T        2      -0.00287143       0.00277771      -0.01779569
Zn       5.32677220       1.49330513      13.00563035  T        2      -0.00594097       0.00637038      -0.01971135
Zn       1.33379582       3.79890809      12.98090717  T        2       0.00770993      -0.00012852       0.00749755
Zn       3.99626796       3.79709690      12.97947366  T        2      -0.00479265       0.00329285       0.01058880
Zn       6.65361533       3.79870925      12.99589665  T        2      -0.00162761       0.00043909      -0.00447491
Zn       2.66686146       6.10231740      12.99697362  T        2      -0.00594165      -0.00192825      -0.01422959
Zn       5.32289705       6.09985560      12.98810279  T        2       0.00629555       0.01005962       0.00191936
Zn       7.98329872       6.09962979      12.98836958  T        2       0.00291875       0.01160569       0.00170293
Zn       0.00893960      -0.07448472      15.54249864  T        1      -0.00389887       0.02616876      -0.00122122
Zn       2.66804437      -0.06714212      15.54234955  T        1       0.00206787      -0.00334218      -0.00579964
Zn       5.32855051      -0.06914978      15.52957618  T        1      -0.00585575       0.01366213       0.00487190
Zn       1.33662214       2.23241417      15.53245763  T        1      -0.00500897       0.01346323      -0.00371541
Zn       3.99749473       2.24040773      15.53798622  T        1       0.00191090      -0.00734055      -0.00706239
Zn       6.65929104       2.23509140      15.54452893  T        1      -0.00414170       0.00644585      -0.00715847
Zn       2.66541978       4.53803186      15.52760181  T        1       0.00334997       0.00201428       0.01059031
Zn       5.32252215       4.54002125      15.55497894  T        1       0.01929101      -0.00204006      -0.00501559
Zn       7.98788406       4.53971102      15.53699035  T        1      -0.01048135       0.00152315      -0.00368305
C        2.90769201       3.31877692      20.11451795  T        0       0.02556512       0.00605766       0.00884719
C        2.86880102       3.04180684      21.62117780  T        0      -0.00618332       0.02179567      -0.01740926
O        3.62383088       4.52750894      19.80538325  T        0      -0.00097913       0.02391130       0.00904385
O        2.28183499       1.73707303      21.79965112  T        0      -0.01828052      -0.02891821      -0.01909830
H        1.87849370       3.33423464      19.70230565  T        0       0.01306927      -0.00674208       0.00500491
H        3.46043948       2.50638595      19.61378843  T        0      -0.00108777      -0.01154425      -0.02503461
H        2.26147965       3.81899399      22.13283952  T        0       0.01255202       0.03307645       0.02043451
H        3.90003976       3.08333879      22.02742550  T        0      -0.00654214      -0.00819477      -0.01681141
H        3.09292612       5.29241116      20.09454807  T        0      -0.01231755      -0.03364430      -0.00126219
H        2.29457897       1.52497026      22.74855818  T        0      -0.00643019       0.00226974       0.03898524
