46
Lattice="7.98 0.0 0.0 3.99 6.910882722199821 0.0 0.0 0.0 23.405440000000002" Properties=species:S:1:pos:R:3:move_mask:L:1:tags:I:1:forces:R:3 charge=0 spin=0 energy=-77.94413441907912 free_energy=-77.94413441907912 stress="0.0013250344622230178 2.464572524144058e-06 -3.2955645628066667e-05 2.464572524144058e-06 0.0012500038108787387 6.288889250613402e-05 -3.2955645628066667e-05 6.288889250613402e-05 -0.0015235945385319854" pbc="T T T"
Zn      -0.00000000       1.53575172       8.00000000  F        4      -0.00030262      -0.00006857      -0.08586724
Zn       2.66000000       1.53575172       8.00000000  F        4       0.00159089       0.00110922      -0.08812872
Zn       5.32000000       1.53575172       8.00000000  F        4      -0.00138374       0.00095213      -0.08790175
Zn       1.33000000       3.83937929       8.00000000  F        4       0.00146540       0.00128369      -0.08750753
Zn       3.99000000       3.83937929       8.00000000  F        4      -0.00027051      -0.00018638      -0.09049714
Zn       6.65000000       3.83937929       8.00000000  F        4      -0.00184316       0.00061235      -0.08819475
Zn       2.66000000       6.14300686       8.00000000  F        4       0.00011158      -0.00170785      -0.08797400
Zn       5.32000000       6.14300686       8.00000000  F        4      -0.00012847      -0.00130699      -0.08862849
Zn       7.98000000       6.14300686       8.00000000  F        4      -0.00014378       0.00004291      -0.08801553
Zn       0.00000000       0.00000000      10.46848000  F        3       0.00121488       0.00838223       0.09715915
Zn       2.66000000       0.00000000      10.46848000  F        3      -0.00062025       0.00117866       0.09591023
Zn       5.32000000       0.00000000      10.46848000  F        3      -0.00359799       0.00270171       0.09848621
Zn       1.33000000       2.30362757      10.46848000  F        3      -0.00582296      -0.00131388       0.10188047
Zn       3.99000000       2.30362757      10.46848000  F        3      -0.00019346      -0.00521492       0.08695001
Zn       6.65000000       2.30362757      10.46848000  F        3       0.00390340      -0.00054665       0.10110709
Zn       2.66000000       4.60725515      10.46848000  F        3      -0.00771903       0.00415949       0.08571512
Zn       5.32000000       4.60725515      10.46848000  F        3       0.00596407       0.00658086       0.08523996
Zn       7.98000000       4.60725515      10.46848000  F        3      -0.00167029       0.00323596       0.09702332
Zn      -0.00445281       1.54731702      13.01414742  T        2       0.00090993       0.00238691      -0.03362542
Zn       2.65556346       1.54912212      12.99339322  T        2      -0.00296195      -0.00766311      -0.01268292
Zn       5.31700346       1.54874059      12.99485786  T        2       0.00030181      -0.00350316      -0.01334034
Zn       1.32380827       3.85034401      12.99488014  T        2       0.00314037       0.00138000      -0.01928296
Zn       3.98584207       3.85153964      12.96631695  T        2       0.00329275       0.00072076       0.01452177
Zn       6.64434816       3.85132669      12.99393120  T        2       0.00120386       0.00067261      -0.01881365
Zn       2.65774606       6.15513934      12.98677860  T        2      -0.00791365       0.00026375      -0.01014290
Zn       5.31574605       6.15606594      12.99487876  T        2       0.00554072      -0.00324403      -0.01780735
Zn       7.97521857       6.15663229      12.99927897  T        2      -0.00074156      -0.00165324      -0.02336702
Zn      -0.00742343       0.01207056      15.53538214  T        1       0.00243405       0.01505632      -0.00332838
Zn       2.65214934       0.01817576      15.54320017  T        1       0.00223721      -0.00498047      -0.00186600
Zn       5.31235365       0.01704875      15.52733760  T        1      -0.00072781       0.00078291       0.00526159
Zn       1.32253244       2.31829855      15.54296257  T        1      -0.00303586       0.00421422      -0.00580420
Zn       3.98228846       2.32594407      15.51156338  T        1       0.00242923      -0.01942491       0.00920979
Zn       6.64127800       2.32029352      15.54651322  T        1       0.00360755       0.00071754      -0.00857424
Zn       2.65622530       4.62223500      15.50896509  T        1      -0.01550184       0.00322028       0.00937185
Zn       5.31061023       4.62482050      15.53273250  T        1       0.01268429      -0.00367157       0.02792796
Zn       7.97159007       4.62373887      15.51654923  T        1      -0.00000873      -0.00338461       0.02256539
C        3.85557350       3.69483649      19.94486773  T        0      -0.00458702      -0.03648270      -0.02167272
C        3.81916450       3.75527426      21.47683943  T        0      -0.00129285      -0.00120790      -0.04483164
O        4.37300641       4.90854754      19.36660703  T        0      -0.03212662      -0.01660353       0.03114827
O        3.34273068       2.47443545      21.93886048  T        0      -0.01088777      -0.00473297       0.02237444
H        2.84645601       3.45189307      19.55437228  T        0       0.03056760       0.01944638       0.01741285
H        4.53827360       2.88967554      19.62219822  T        0       0.00397386      -0.01369665       0.03090650
H        3.14546474       4.57348281      21.80890119  T        0      -0.01159897       0.01679274      -0.01975898
H        4.83516552       3.96808624      21.86474061  T        0       0.02905546       0.02279653      -0.01901212
H        3.65253914       5.56324673      19.33966013  T        0       0.00737254       0.02904179       0.02519504
H        3.31300048       2.49903253      22.91134132  T        0      -0.00792055      -0.01713780       0.00125903
