40
Lattice="7.98 0.0 0.0 3.99 6.910882722199821 0.0 0.0 0.0 23.405440000000002" Properties=species:S:1:pos:R:3:move_mask:L:1:tags:I:1:forces:R:3 charge=0 spin=0 energy=-39.709430024657095 free_energy=-39.709430024657095 stress="0.0011212422694847589 1.6222597837422976e-06 5.4717250989848705e-06 1.6222597837422976e-06 0.0011228633304231947 4.569441157011348e-05 5.4717250989848705e-06 4.569441157011348e-05 -0.0011296751653942798" pbc="T T T"
Zn      -0.00000000       1.53575172       8.00000000  F        4       0.00032014       0.00095728      -0.10210807
Zn       2.66000000       1.53575172       8.00000000  F        4      -0.00419385      -0.00160511      -0.09837166
Zn       5.32000000       1.53575172       8.00000000  F        4       0.00370953      -0.00226476      -0.09930826
Zn       1.33000000       3.83937929       8.00000000  F        4      -0.00405058      -0.00251232      -0.09914219
Zn       3.99000000       3.83937929       8.00000000  F        4       0.00007066      -0.00010566      -0.10010084
Zn       6.65000000       3.83937929       8.00000000  F        4       0.00349319      -0.00263134      -0.09821571
Zn       2.66000000       6.14300686       8.00000000  F        4      -0.00001391       0.00404098      -0.09779529
Zn       5.32000000       6.14300686       8.00000000  F        4       0.00062160       0.00432337      -0.09863331
Zn       7.98000000       6.14300686       8.00000000  F        4       0.00009844       0.00022005      -0.10020193
Zn       0.00000000       0.00000000      10.46848000  F        3      -0.00080822      -0.00733078       0.10573089
Zn       2.66000000       0.00000000      10.46848000  F        3       0.00607655      -0.00408973       0.11864568
Zn       5.32000000       0.00000000      10.46848000  F        3      -0.00597740      -0.00402867       0.11860915
Zn       1.33000000       2.30362757      10.46848000  F        3       0.00577996       0.00387175       0.10303564
Zn       3.99000000       2.30362757      10.46848000  F        3       0.00042298       0.01481142       0.10259287
Zn       6.65000000       2.30362757      10.46848000  F        3      -0.00496673       0.00609437       0.10325123
Zn       2.66000000       4.60725515      10.46848000  F        3       0.01109765      -0.00405974       0.10330553
Zn       5.32000000       4.60725515      10.46848000  F        3      -0.01075993      -0.00392871       0.10341543
Zn       7.98000000       4.60725515      10.46848000  F        3      -0.00021696       0.00937505       0.11656453
Zn       0.00017179       1.53918139      12.98932436  T        2      -0.00002528       0.00619457       0.03032938
Zn       2.66660175       1.54121158      12.98912374  T        2      -0.01735662      -0.00520650       0.01783882
Zn       5.31682646       1.54846775      12.99037128  T        2       0.01271138      -0.01988759       0.01749798
Zn       1.33604387       3.84208139      12.99109186  T        2      -0.02050040       0.00316133       0.01607867
Zn       3.99069446       3.84776839      13.03188849  T        2      -0.00147547      -0.01014765       0.02346141
Zn       6.64974508       3.84839549      12.99072155  T        2       0.00748337      -0.00775717       0.01517365
Zn       2.65413313       6.14643048      12.99327636  T        2       0.01125625       0.01007554       0.01231696
Zn       5.31666976       6.14531591      12.99458882  T        2       0.00660326       0.01453389       0.01119353
Zn       7.97926014       6.14754764      13.01672745  T        2       0.00139876       0.00442492       0.02018598
Zn      -0.00201902       0.01108042      15.55810078  T        1       0.00114927       0.00036965      -0.02725551
Zn       2.65825179       0.00561368      15.58033475  T        1       0.00554414       0.00565437      -0.02618084
Zn       5.31941200       0.00942342      15.58085094  T        1      -0.00191578      -0.00081264      -0.02624747
Zn       1.33262354       2.31274534      15.55287683  T        1      -0.00496207      -0.00521153      -0.02621302
Zn       3.98966200       2.30717991      15.64098377  T        1      -0.00028960       0.00405736      -0.03403834
Zn       6.64884073       2.31635275      15.55292661  T        1       0.00373799      -0.00855284      -0.02589370
Zn       2.65924042       4.61871097      15.61495597  T        1      -0.00647024      -0.00024074      -0.03787239
Zn       5.32131131       4.61850186      15.61537320  T        1       0.00622365      -0.00099874      -0.03750871
Zn       7.98231531       4.61408380      15.58317074  T        1      -0.00364685       0.00683203      -0.02962248
Zn       3.99257737       3.75421483      18.42665003  T        0       0.00033640      -0.01146861       0.01791184
O        3.98935508       4.00833221      21.94045083  T        0       0.00108582       0.01358069       0.01874580
H        4.75773238       3.72306945      22.46675098  T        0      -0.00792871      -0.00458747      -0.00699938
H        3.21932749       3.72474717      22.46505160  T        0       0.00633758      -0.00515035      -0.00417585
