46
Lattice="7.98 0.0 0.0 3.99 6.910882722199821 0.0 0.0 0.0 23.405440000000002" Properties=species:S:1:pos:R:3:move_mask:L:1:tags:I:1:forces:R:3 charge=0 spin=0 energy=-77.95106031919781 free_energy=-77.95106031919781 stress="0.0013228295452069763 -1.8338669156513677e-05 8.312505890650253e-05 -1.8338669156513677e-05 0.0013220199756987152 -0.0001598648989736238 8.312505890650253e-05 -0.0001598648989736238 -0.0015163863933536502" pbc="T T T"
Zn      -0.00000000       1.53575172       8.00000000  F        4       0.00029464       0.00026974      -0.08604828
Zn       2.66000000       1.53575172       8.00000000  F        4       0.00183373       0.00139063      -0.08749432
Zn       5.32000000       1.53575172       8.00000000  F        4      -0.00133096       0.00116428      -0.08754370
Zn       1.33000000       3.83937929       8.00000000  F        4       0.00128978       0.00060148      -0.08843399
Zn       3.99000000       3.83937929       8.00000000  F        4       0.00038370      -0.00065596      -0.09059487
Zn       6.65000000       3.83937929       8.00000000  F        4      -0.00145142       0.00060191      -0.08790328
Zn       2.66000000       6.14300686       8.00000000  F        4       0.00004919      -0.00238858      -0.08838333
Zn       5.32000000       6.14300686       8.00000000  F        4       0.00044445      -0.00232374      -0.08785576
Zn       7.98000000       6.14300686       8.00000000  F        4       0.00041421      -0.00089643      -0.08769710
Zn       0.00000000       0.00000000      10.46848000  F        3       0.00241081      -0.00255094       0.10240842
Zn       2.66000000       0.00000000      10.46848000  F        3       0.00197456      -0.00667433       0.09939033
Zn       5.32000000       0.00000000      10.46848000  F        3       0.00496263      -0.00833366       0.09599402
Zn       1.33000000       2.30362757      10.46848000  F        3      -0.00080852      -0.01148550       0.09979126
Zn       3.99000000       2.30362757      10.46848000  F        3       0.00208781      -0.01766467       0.08525906
Zn       6.65000000       2.30362757      10.46848000  F        3       0.00780892      -0.01224982       0.09858711
Zn       2.66000000       4.60725515      10.46848000  F        3      -0.00387116      -0.00017211       0.08627635
Zn       5.32000000       4.60725515      10.46848000  F        3       0.00896344       0.00020130       0.08651443
Zn       7.98000000       4.60725515      10.46848000  F        3       0.00429577      -0.00576186       0.09302342
Zn       0.01903409       1.49735314      13.01366699  T        2       0.00091151       0.00777824      -0.03222657
Zn       2.67809416       1.49943440      12.99681857  T        2       0.00112890       0.00143306      -0.02171090
Zn       5.34105457       1.49674956      12.99389204  T        2      -0.00204326       0.00655170      -0.01811496
Zn       1.35025490       3.80113165      12.99079887  T        2      -0.00041597       0.00486320      -0.01472865
Zn       4.01038929       3.80220209      12.96221808  T        2      -0.00413248       0.00600691       0.02181460
Zn       6.66955492       3.80116843      12.98762450  T        2       0.00035940       0.00456052      -0.00812136
Zn       2.68335502       6.10461357      13.00189922  T        2      -0.01065618       0.00648954      -0.02572710
Zn       5.33844746       6.10731250      12.99897397  T        2       0.00428536       0.00207170      -0.02252723
Zn       8.00147239       6.10445113      12.99506216  T        2      -0.00386613       0.00839069      -0.02245431
Zn       0.02750012      -0.04810942      15.55732172  T        1      -0.00340758       0.00740873      -0.01064838
Zn       2.68738986      -0.04498178      15.51965718  T        1       0.00039043      -0.00250330       0.01494496
Zn       5.34706822      -0.04546926      15.52482099  T        1      -0.00058499      -0.00189866       0.01697562
Zn       1.36027995       2.25732541      15.54383664  T        1      -0.01332567       0.00546764      -0.00851241
Zn       4.01729255       2.26234897      15.50653925  T        1      -0.00109938      -0.01050863       0.01148649
Zn       6.67699485       2.25603926      15.54196930  T        1       0.00259799       0.00643310      -0.00495592
Zn       2.68895518       4.56164958      15.52681266  T        1      -0.00920777       0.00567500       0.02345546
Zn       5.34351620       4.56018506      15.51476793  T        1       0.01106034       0.00306597       0.00838303
Zn       8.00669408       4.55907307      15.51610015  T        1       0.00102627       0.00573374       0.01955877
C        3.57297562       3.26831259      19.94034742  T        0      -0.02103540      -0.00412974       0.00471766
C        3.64997665       3.06778450      21.45894233  T        0       0.02180843       0.01060628      -0.03516072
O        3.57769321       4.66259037      19.58150758  T        0       0.03136574       0.00458028       0.00517003
O        3.55191723       1.64988699      21.71222687  T        0      -0.02501604       0.01386649       0.02430899
H        2.61962575       2.86464706      19.56018228  T        0      -0.03354318      -0.01827452       0.02792824
H        4.39081845       2.71021336      19.44217564  T        0       0.01199392       0.02874936       0.02018854
H        2.82589697       3.62528197      21.95012107  T        0       0.01427204      -0.01319894      -0.04014057
H        4.61409720       3.46540384      21.84314693  T        0      -0.00011964       0.03782324      -0.01077998
H        4.48763247       5.00255276      19.66252958  T        0      -0.00598501      -0.02372135       0.02751997
H        3.53943774       1.52390815      22.67733098  T        0       0.00348672      -0.03639209      -0.00593313
