36
Lattice="7.98 0.0 0.0 3.99 6.910882722199821 0.0 0.0 0.0 23.405440000000002" Properties=species:S:1:pos:R:3:move_mask:L:1:tags:I:1:forces:R:3 charge=0 spin=0 energy=-25.475383349580774 free_energy=-25.475383349580774 stress="0.0001938915572232929 1.885311899155271e-09 -1.635362595520917e-09 1.885311899155271e-09 0.00019390171514454546 -1.0029839395386578e-09 -1.635362595520917e-09 -1.0029839395386578e-09 -0.0029685465677178544" pbc="T T T"
Zn      -0.00000000       1.53575172       8.00000000  F        4       0.00000090      -0.00000087      -0.08343903
Zn       2.66000000       1.53575172       8.00000000  F        4      -0.00000054      -0.00000145      -0.08343884
Zn       5.32000000       1.53575172       8.00000000  F        4      -0.00000052      -0.00000119      -0.08343934
Zn       1.33000000       3.83937929       8.00000000  F        4      -0.00000206       0.00000020      -0.08343911
Zn       3.99000000       3.83937929       8.00000000  F        4       0.00000173      -0.00000020      -0.08343925
Zn       6.65000000       3.83937929       8.00000000  F        4       0.00000041       0.00000014      -0.08343865
Zn       2.66000000       6.14300686       8.00000000  F        4      -0.00000115       0.00000132      -0.08343872
Zn       5.32000000       6.14300686       8.00000000  F        4      -0.00000007       0.00000090      -0.08343914
Zn       7.98000000       6.14300686       8.00000000  F        4       0.00000100       0.00000079      -0.08343899
Zn       0.00000000       0.00000000      10.46848000  F        3       0.00000011      -0.00000151       0.02045205
Zn       2.66000000       0.00000000      10.46848000  F        3      -0.00000013      -0.00000132       0.02045211
Zn       5.32000000       0.00000000      10.46848000  F        3      -0.00000039      -0.00000090       0.02045150
Zn       1.33000000       2.30362757      10.46848000  F        3       0.00000019       0.00000035       0.02045194
Zn       3.99000000       2.30362757      10.46848000  F        3       0.00000053       0.00000020       0.02045261
Zn       6.65000000       2.30362757      10.46848000  F        3      -0.00000027      -0.00000001       0.02045242
Zn       2.66000000       4.60725515      10.46848000  F        3      -0.00000032       0.00000118       0.02045285
Zn       5.32000000       4.60725515      10.46848000  F        3      -0.00000050       0.00000113       0.02045275
Zn       7.98000000       4.60725515      10.46848000  F        3       0.00000057       0.00000114       0.02045239
Zn       0.00000031       1.53575140      12.92454050  T        2      -0.00000352       0.00000174       0.03703977
Zn       2.65999993       1.53575119      12.92454049  T        2       0.00000089       0.00000294       0.03704027
Zn       5.31999980       1.53575136      12.92454058  T        2       0.00000246       0.00000296       0.03703973
Zn       1.32999927       3.83937937      12.92454045  T        2       0.00000404      -0.00000069       0.03703982
Zn       3.99000058       3.83937920      12.92454045  T        2      -0.00000420       0.00000060       0.03704088
Zn       6.65000009       3.83937926      12.92454046  T        2      -0.00000047       0.00000010       0.03704110
Zn       2.65999966       6.14300723      12.92454035  T        2       0.00000375      -0.00000260       0.03704065
Zn       5.31999992       6.14300709      12.92454046  T        2       0.00000165      -0.00000248       0.03703994
Zn       7.98000031       6.14300704      12.92454045  T        2      -0.00000428      -0.00000238       0.03703999
Zn       0.00000047       0.00000051      15.43290492  T        1      -0.00000387      -0.00000339       0.02594665
Zn       2.66000018       0.00000054      15.43290497  T        1      -0.00000088      -0.00000399       0.02594656
Zn       5.31999929       0.00000040      15.43290483  T        1       0.00000535      -0.00000305       0.02594727
Zn       1.33000007       2.30362724      15.43290501  T        1       0.00000036       0.00000252       0.02594710
Zn       3.99000040       2.30362688      15.43290500  T        1      -0.00000214       0.00000614       0.02594645
Zn       6.64999990       2.30362732      15.43290503  T        1       0.00000013       0.00000298       0.02594636
Zn       2.65999959       4.60725514      15.43290488  T        1       0.00000366       0.00000127       0.02594583
Zn       5.31999990       4.60725523      15.43290488  T        1       0.00000153      -0.00000109       0.02594577
Zn       7.98000031       4.60725533      15.43290493  T        1      -0.00000397      -0.00000141       0.02594629
