10
Lattice="20.0 0.0 0.0 0.0 20.0 0.0 0.0 0.0 20.0" Properties=species:S:1:pos:R:3:forces:R:3 charge=0 spin=0 energy=-52.30099912380155 free_energy=-52.30099912380155 stress="1.3797437809034252e-05 -4.265848062504185e-06 -4.2194201719893125e-08 -4.265848062504185e-06 -2.98202140042858e-06 2.428943990801513e-07 -4.2194201719893125e-08 2.428943990801513e-07 7.364884835788517e-06" pbc="T T T"
C        8.77838459       9.71747591      10.00004386       0.02429099       0.00810339       0.00008574
C       10.30747658       9.70742469       9.99987052       0.00982366      -0.00243407      -0.00017305
O        8.23534186      11.05484018      10.00230967      -0.00023853      -0.00268601       0.00253262
O       10.74164640       8.33503616       9.99958760      -0.01675391      -0.01253436      -0.00010457
H        8.40572546       9.18566141      10.89689517       0.00824764      -0.00717562      -0.03026184
H        8.40622966       9.18673026       9.10225065       0.00748499      -0.00607028       0.02956919
H       10.68309937      10.23909758      10.90140498      -0.01106676       0.01603629      -0.00281951
H       10.68230129      10.23905748       9.09798920      -0.01070478       0.01709857       0.00299402
H        8.96636149      11.69772988       9.99842864       0.00464418      -0.00848604      -0.00252184
H       11.71543329       8.32494648      10.00121970      -0.01572743      -0.00185182       0.00069920
