36
Lattice="7.98 0.0 0.0 3.99 6.910882722199821 0.0 0.0 0.0 23.405440000000002" Properties=species:S:1:pos:R:3:move_mask:L:1:tags:I:1:forces:R:3 charge=0 spin=0 energy=-25.475380364975027 free_energy=-25.475380364975027 stress="0.00019389847180835645 7.933924199192971e-10 -1.8358698886533708e-09 7.933924199192971e-10 0.00019391014203316715 -6.186050543099735e-10 -1.8358698886533708e-09 -6.186050543099735e-10 -0.0029685456381723426" pbc="T T T"
Zn      -0.00000000       1.53575172       8.00000000  F        4       0.00000083      -0.00000092      -0.08343975
Zn       2.66000000       1.53575172       8.00000000  F        4      -0.00000044      -0.00000148      -0.08343952
Zn       5.32000000       1.53575172       8.00000000  F        4      -0.00000046      -0.00000108      -0.08344010
Zn       1.33000000       3.83937929       8.00000000  F        4      -0.00000202       0.00000026      -0.08343985
Zn       3.99000000       3.83937929       8.00000000  F        4       0.00000166      -0.00000037      -0.08343982
Zn       6.65000000       3.83937929       8.00000000  F        4       0.00000031       0.00000004      -0.08343937
Zn       2.66000000       6.14300686       8.00000000  F        4      -0.00000110       0.00000135      -0.08343931
Zn       5.32000000       6.14300686       8.00000000  F        4      -0.00000012       0.00000101      -0.08343978
Zn       7.98000000       6.14300686       8.00000000  F        4       0.00000108       0.00000080      -0.08343967
Zn       0.00000000       0.00000000      10.46848000  F        3       0.00000017      -0.00000132       0.02045390
Zn       2.66000000       0.00000000      10.46848000  F        3      -0.00000016      -0.00000138       0.02045410
Zn       5.32000000       0.00000000      10.46848000  F        3      -0.00000051      -0.00000080       0.02045358
Zn       1.33000000       2.30362757      10.46848000  F        3       0.00000020       0.00000022       0.02045381
Zn       3.99000000       2.30362757      10.46848000  F        3       0.00000059       0.00000015       0.02045434
Zn       6.65000000       2.30362757      10.46848000  F        3      -0.00000031      -0.00000011       0.02045431
Zn       2.66000000       4.60725515      10.46848000  F        3      -0.00000030       0.00000099       0.02045369
Zn       5.32000000       4.60725515      10.46848000  F        3      -0.00000043       0.00000107       0.02045432
Zn       7.98000000       4.60725515      10.46848000  F        3       0.00000052       0.00000108       0.02045390
Zn       0.00000032       1.53575141      12.92454088  T        2      -0.00000363       0.00000207       0.03703841
Zn       2.65999992       1.53575120      12.92454087  T        2       0.00000151       0.00000241       0.03703909
Zn       5.31999979       1.53575137      12.92454096  T        2       0.00000206       0.00000249       0.03703847
Zn       1.32999927       3.83937937      12.92454085  T        2       0.00000412      -0.00000123       0.03703862
Zn       3.99000053       3.83937914      12.92454077  T        2      -0.00000394       0.00000143       0.03703950
Zn       6.65000012       3.83937923      12.92454084  T        2      -0.00000097      -0.00000065       0.03703980
Zn       2.65999964       6.14300720      12.92454064  T        2       0.00000377      -0.00000293       0.03703928
Zn       5.31999989       6.14300715      12.92454076  T        2       0.00000144      -0.00000319       0.03703839
Zn       7.98000035       6.14300703      12.92454079  T        2      -0.00000413       0.00000040       0.03703870
Zn       0.00000046       0.00000055      15.43290418  T        1      -0.00000382      -0.00000353       0.02594735
Zn       2.66000017       0.00000053      15.43290415  T        1      -0.00000082      -0.00000411       0.02594673
Zn       5.31999927       0.00000041      15.43290403  T        1       0.00000528      -0.00000316       0.02594753
Zn       1.33000005       2.30362724      15.43290424  T        1       0.00000032       0.00000256       0.02594713
Zn       3.99000039       2.30362689      15.43290422  T        1      -0.00000202       0.00000597       0.02594684
Zn       6.64999993       2.30362730      15.43290424  T        1       0.00000013       0.00000300       0.02594643
Zn       2.65999957       4.60725514      15.43290409  T        1       0.00000373       0.00000134       0.02594611
Zn       5.31999991       4.60725528      15.43290417  T        1       0.00000139      -0.00000106       0.02594619
Zn       7.98000032       4.60725530      15.43290415  T        1      -0.00000391      -0.00000137       0.02594666
